% Model:              modelJ.mph
% Versjon:            COMSOL 6.0.0.405
% Date:               Aug 21 2023, 16:49
% Djmensjon:          1
% Nodes:              1
% Expressjons:        60
% Descrjptjon:        
% r                       (-muS*gNaS*u23z-DS*u3Tz)*e*2*pj*r/(pj*R^2*ka*E0) @ w=0.01 (-muS*gNaS*u23z-DS*u3Tz)*e*2*pj*r/(pj*R^2*ka*E0) @ w=0.012638 (-muS*gNaS*u23z-DS*u3Tz)*e*2*pj*r/(pj*R^2*ka*E0) @ w=0.015973 (-muS*gNaS*u23z-DS*u3Tz)*e*2*pj*r/(pj*R^2*ka*E0) @ w=0.020188 (-muS*gNaS*u23z-DS*u3Tz)*e*2*pj*r/(pj*R^2*ka*E0) @ w=0.025514 (-muS*gNaS*u23z-DS*u3Tz)*e*2*pj*r/(pj*R^2*ka*E0) @ w=0.032246 (-muS*gNaS*u23z-DS*u3Tz)*e*2*pj*r/(pj*R^2*ka*E0) @ w=0.040754 (-muS*gNaS*u23z-DS*u3Tz)*e*2*pj*r/(pj*R^2*ka*E0) @ w=0.051507 (-muS*gNaS*u23z-DS*u3Tz)*e*2*pj*r/(pj*R^2*ka*E0) @ w=0.065097 (-muS*gNaS*u23z-DS*u3Tz)*e*2*pj*r/(pj*R^2*ka*E0) @ w=0.082272 (-muS*gNaS*u23z-DS*u3Tz)*e*2*pj*r/(pj*R^2*ka*E0) @ w=0.10398 (-muS*gNaS*u23z-DS*u3Tz)*e*2*pj*r/(pj*R^2*ka*E0) @ w=0.13141 (-muS*gNaS*u23z-DS*u3Tz)*e*2*pj*r/(pj*R^2*ka*E0) @ w=0.16609 (-muS*gNaS*u23z-DS*u3Tz)*e*2*pj*r/(pj*R^2*ka*E0) @ w=0.20991 (-muS*gNaS*u23z-DS*u3Tz)*e*2*pj*r/(pj*R^2*ka*E0) @ w=0.26529 (-muS*gNaS*u23z-DS*u3Tz)*e*2*pj*r/(pj*R^2*ka*E0) @ w=0.33529 (-muS*gNaS*u23z-DS*u3Tz)*e*2*pj*r/(pj*R^2*ka*E0) @ w=0.42376 (-muS*gNaS*u23z-DS*u3Tz)*e*2*pj*r/(pj*R^2*ka*E0) @ w=0.53557 (-muS*gNaS*u23z-DS*u3Tz)*e*2*pj*r/(pj*R^2*ka*E0) @ w=0.67688 (-muS*gNaS*u23z-DS*u3Tz)*e*2*pj*r/(pj*R^2*ka*E0) @ w=0.85547 (-muS*gNaS*u23z-DS*u3Tz)*e*2*pj*r/(pj*R^2*ka*E0) @ w=1.0812 (-muS*gNaS*u23z-DS*u3Tz)*e*2*pj*r/(pj*R^2*ka*E0) @ w=1.3664 (-muS*gNaS*u23z-DS*u3Tz)*e*2*pj*r/(pj*R^2*ka*E0) @ w=1.727 (-muS*gNaS*u23z-DS*u3Tz)*e*2*pj*r/(pj*R^2*ka*E0) @ w=2.1826 (-muS*gNaS*u23z-DS*u3Tz)*e*2*pj*r/(pj*R^2*ka*E0) @ w=2.7585 (-muS*gNaS*u23z-DS*u3Tz)*e*2*pj*r/(pj*R^2*ka*E0) @ w=3.4864 (-muS*gNaS*u23z-DS*u3Tz)*e*2*pj*r/(pj*R^2*ka*E0) @ w=4.4062 (-muS*gNaS*u23z-DS*u3Tz)*e*2*pj*r/(pj*R^2*ka*E0) @ w=5.5688 (-muS*gNaS*u23z-DS*u3Tz)*e*2*pj*r/(pj*R^2*ka*E0) @ w=7.0381 (-muS*gNaS*u23z-DS*u3Tz)*e*2*pj*r/(pj*R^2*ka*E0) @ w=8.8951 (-muS*gNaS*u23z-DS*u3Tz)*e*2*pj*r/(pj*R^2*ka*E0) @ w=11.242 (-muS*gNaS*u23z-DS*u3Tz)*e*2*pj*r/(pj*R^2*ka*E0) @ w=14.208 (-muS*gNaS*u23z-DS*u3Tz)*e*2*pj*r/(pj*R^2*ka*E0) @ w=17.957 (-muS*gNaS*u23z-DS*u3Tz)*e*2*pj*r/(pj*R^2*ka*E0) @ w=22.695 (-muS*gNaS*u23z-DS*u3Tz)*e*2*pj*r/(pj*R^2*ka*E0) @ w=28.683 (-muS*gNaS*u23z-DS*u3Tz)*e*2*pj*r/(pj*R^2*ka*E0) @ w=36.251 (-muS*gNaS*u23z-DS*u3Tz)*e*2*pj*r/(pj*R^2*ka*E0) @ w=45.816 (-muS*gNaS*u23z-DS*u3Tz)*e*2*pj*r/(pj*R^2*ka*E0) @ w=57.904 (-muS*gNaS*u23z-DS*u3Tz)*e*2*pj*r/(pj*R^2*ka*E0) @ w=73.182 (-muS*gNaS*u23z-DS*u3Tz)*e*2*pj*r/(pj*R^2*ka*E0) @ w=92.491 (-muS*gNaS*u23z-DS*u3Tz)*e*2*pj*r/(pj*R^2*ka*E0) @ w=116.9 (-muS*gNaS*u23z-DS*u3Tz)*e*2*pj*r/(pj*R^2*ka*E0) @ w=147.74 (-muS*gNaS*u23z-DS*u3Tz)*e*2*pj*r/(pj*R^2*ka*E0) @ w=186.72 (-muS*gNaS*u23z-DS*u3Tz)*e*2*pj*r/(pj*R^2*ka*E0) @ w=235.98 (-muS*gNaS*u23z-DS*u3Tz)*e*2*pj*r/(pj*R^2*ka*E0) @ w=298.25 (-muS*gNaS*u23z-DS*u3Tz)*e*2*pj*r/(pj*R^2*ka*E0) @ w=376.94 (-muS*gNaS*u23z-DS*u3Tz)*e*2*pj*r/(pj*R^2*ka*E0) @ w=476.39 (-muS*gNaS*u23z-DS*u3Tz)*e*2*pj*r/(pj*R^2*ka*E0) @ w=602.09 (-muS*gNaS*u23z-DS*u3Tz)*e*2*pj*r/(pj*R^2*ka*E0) @ w=760.95 (-muS*gNaS*u23z-DS*u3Tz)*e*2*pj*r/(pj*R^2*ka*E0) @ w=961.72 (-muS*gNaS*u23z-DS*u3Tz)*e*2*pj*r/(pj*R^2*ka*E0) @ w=1215.5 (-muS*gNaS*u23z-DS*u3Tz)*e*2*pj*r/(pj*R^2*ka*E0) @ w=1536.2 (-muS*gNaS*u23z-DS*u3Tz)*e*2*pj*r/(pj*R^2*ka*E0) @ w=1941.5 (-muS*gNaS*u23z-DS*u3Tz)*e*2*pj*r/(pj*R^2*ka*E0) @ w=2453.8 (-muS*gNaS*u23z-DS*u3Tz)*e*2*pj*r/(pj*R^2*ka*E0) @ w=3101.2 (-muS*gNaS*u23z-DS*u3Tz)*e*2*pj*r/(pj*R^2*ka*E0) @ w=3919.4 (-muS*gNaS*u23z-DS*u3Tz)*e*2*pj*r/(pj*R^2*ka*E0) @ w=4953.5 (-muS*gNaS*u23z-DS*u3Tz)*e*2*pj*r/(pj*R^2*ka*E0) @ w=6260.5 (-muS*gNaS*u23z-DS*u3Tz)*e*2*pj*r/(pj*R^2*ka*E0) @ w=7912.3 (-muS*gNaS*u23z-DS*u3Tz)*e*2*pj*r/(pj*R^2*ka*E0) @ w=10000
0                         4.784696261797093E-4-9.43039700726505E-6j         4.7826839682228446E-4-1.1909554714136317E-5j      4.7794759611295316E-4-1.503366377418277E-5j       4.7743676670571636E-4-1.8963630344035518E-5j      4.7662484353964247E-4-2.3893548903933848E-5j      4.7533813323544265E-4-3.0050398126096925E-5j      4.733084406529403E-4-3.7685224076653855E-5j       4.701300829383517E-4-4.7046663805218194E-5j       4.652095858575644E-4-5.832146420067644E-5j        4.5772536590774174E-4-7.152064895821988E-5j       4.466422283672321E-4-8.629320904484748E-5j        4.3086420567870187E-4-1.0168391938311843E-4j      4.0962208119532586E-4-1.1594731865020523E-4j      3.830846270308491E-4-1.266653108322274E-4j        3.5288840885540346E-4-1.3141507453060135E-4j      3.2203050289065865E-4-1.2884391713165557E-4j      2.938893910450537E-4-1.1943042767837684E-4j       2.7097166295050895E-4-1.0527550538732917E-4j      2.5426787679016084E-4-8.914673040462235E-5j       2.434093557609157E-4-7.35695655052765E-5j         2.371468231211925E-4-6.039063257251582E-5j        2.3373779353645687E-4-5.0650036176435096E-5j      2.3125357447648502E-4-4.448520507793794E-5j       2.280007864448194E-4-4.107731353029416E-5j        2.2303559778786777E-4-3.886925560082489E-5j       2.1648675037969585E-4-3.6124721664528674E-5j      2.094581027847212E-4-3.161101708920715E-5j        2.035024268878795E-4-2.5092799211617286E-5j       1.9987319394491E-4-1.7356988564884027E-5j         1.9898047551068478E-4-9.704759717780544E-6j       2.0040193336025278E-4-3.271027794700774E-6j       2.033060149861676E-4+1.327919022597428E-6j        2.068185332700188E-4+3.941139358029738E-6j        2.1014898896206828E-4+4.756032713241362E-6j       2.1268471511297764E-4+4.263569035118932E-6j       2.14154516907337E-4+3.153999315079782E-6j         2.146931619062676E-4+2.068778153507756E-6j        2.147001162671829E-4+1.368827940919724E-6j        2.145854807947912E-4+1.076340605052931E-6j        2.145721416483482E-4+1.0077129737505924E-6j       2.1467223082062757E-4+9.78828248042475E-7j        2.148076213741016E-4+9.190515919235454E-7j        2.1492751108178338E-4+8.427630704845144E-7j       2.1502871327543443E-4+7.731993132379664E-7j       2.1512028706819833E-4+7.144678004655763E-7j       2.152051554808323E-4+6.640063247170554E-7j        2.1528376223730133E-4+6.211081121523552E-7j       2.1535717754979822E-4+5.857352587117102E-7j       2.15426588627789E-4+5.576398518224815E-7j         2.15493114877953E-4+5.365580833003452E-7j         2.1555795542365578E-4+5.22252628707472E-7j        2.1562248164474986E-4+5.143421799543522E-7j       2.1568814362258072E-4+5.120006704743972E-7j       2.157560348616883E-4+5.13801835974374E-7j         2.1582641658758346E-4+5.17926662788546E-7j        2.158983646892263E-4+5.227338165445804E-7j        2.1596993975421479E-4+5.274368213133524E-7j       2.1603861112875594E-4+5.326122980157535E-7j       2.1610190039808602E-4+5.403700561819083E-7j       2.161578844912508E-4+5.54204229068155E-7j
