% Model:              modelJ.mph
% Versjon:            COMSOL 6.0.0.405
% Date:               Aug 21 2023, 16:56
% Djmensjon:          1
% Nodes:              1
% Expressjons:        60
% Descrjptjon:        
% r                       (-muS*gNaS*u23z-DS*u3Tz)*e*2*pj*r/(pj*R^2*ka*E0) @ w=0.01 (-muS*gNaS*u23z-DS*u3Tz)*e*2*pj*r/(pj*R^2*ka*E0) @ w=0.012638 (-muS*gNaS*u23z-DS*u3Tz)*e*2*pj*r/(pj*R^2*ka*E0) @ w=0.015973 (-muS*gNaS*u23z-DS*u3Tz)*e*2*pj*r/(pj*R^2*ka*E0) @ w=0.020188 (-muS*gNaS*u23z-DS*u3Tz)*e*2*pj*r/(pj*R^2*ka*E0) @ w=0.025514 (-muS*gNaS*u23z-DS*u3Tz)*e*2*pj*r/(pj*R^2*ka*E0) @ w=0.032246 (-muS*gNaS*u23z-DS*u3Tz)*e*2*pj*r/(pj*R^2*ka*E0) @ w=0.040754 (-muS*gNaS*u23z-DS*u3Tz)*e*2*pj*r/(pj*R^2*ka*E0) @ w=0.051507 (-muS*gNaS*u23z-DS*u3Tz)*e*2*pj*r/(pj*R^2*ka*E0) @ w=0.065097 (-muS*gNaS*u23z-DS*u3Tz)*e*2*pj*r/(pj*R^2*ka*E0) @ w=0.082272 (-muS*gNaS*u23z-DS*u3Tz)*e*2*pj*r/(pj*R^2*ka*E0) @ w=0.10398 (-muS*gNaS*u23z-DS*u3Tz)*e*2*pj*r/(pj*R^2*ka*E0) @ w=0.13141 (-muS*gNaS*u23z-DS*u3Tz)*e*2*pj*r/(pj*R^2*ka*E0) @ w=0.16609 (-muS*gNaS*u23z-DS*u3Tz)*e*2*pj*r/(pj*R^2*ka*E0) @ w=0.20991 (-muS*gNaS*u23z-DS*u3Tz)*e*2*pj*r/(pj*R^2*ka*E0) @ w=0.26529 (-muS*gNaS*u23z-DS*u3Tz)*e*2*pj*r/(pj*R^2*ka*E0) @ w=0.33529 (-muS*gNaS*u23z-DS*u3Tz)*e*2*pj*r/(pj*R^2*ka*E0) @ w=0.42376 (-muS*gNaS*u23z-DS*u3Tz)*e*2*pj*r/(pj*R^2*ka*E0) @ w=0.53557 (-muS*gNaS*u23z-DS*u3Tz)*e*2*pj*r/(pj*R^2*ka*E0) @ w=0.67688 (-muS*gNaS*u23z-DS*u3Tz)*e*2*pj*r/(pj*R^2*ka*E0) @ w=0.85547 (-muS*gNaS*u23z-DS*u3Tz)*e*2*pj*r/(pj*R^2*ka*E0) @ w=1.0812 (-muS*gNaS*u23z-DS*u3Tz)*e*2*pj*r/(pj*R^2*ka*E0) @ w=1.3664 (-muS*gNaS*u23z-DS*u3Tz)*e*2*pj*r/(pj*R^2*ka*E0) @ w=1.727 (-muS*gNaS*u23z-DS*u3Tz)*e*2*pj*r/(pj*R^2*ka*E0) @ w=2.1826 (-muS*gNaS*u23z-DS*u3Tz)*e*2*pj*r/(pj*R^2*ka*E0) @ w=2.7585 (-muS*gNaS*u23z-DS*u3Tz)*e*2*pj*r/(pj*R^2*ka*E0) @ w=3.4864 (-muS*gNaS*u23z-DS*u3Tz)*e*2*pj*r/(pj*R^2*ka*E0) @ w=4.4062 (-muS*gNaS*u23z-DS*u3Tz)*e*2*pj*r/(pj*R^2*ka*E0) @ w=5.5688 (-muS*gNaS*u23z-DS*u3Tz)*e*2*pj*r/(pj*R^2*ka*E0) @ w=7.0381 (-muS*gNaS*u23z-DS*u3Tz)*e*2*pj*r/(pj*R^2*ka*E0) @ w=8.8951 (-muS*gNaS*u23z-DS*u3Tz)*e*2*pj*r/(pj*R^2*ka*E0) @ w=11.242 (-muS*gNaS*u23z-DS*u3Tz)*e*2*pj*r/(pj*R^2*ka*E0) @ w=14.208 (-muS*gNaS*u23z-DS*u3Tz)*e*2*pj*r/(pj*R^2*ka*E0) @ w=17.957 (-muS*gNaS*u23z-DS*u3Tz)*e*2*pj*r/(pj*R^2*ka*E0) @ w=22.695 (-muS*gNaS*u23z-DS*u3Tz)*e*2*pj*r/(pj*R^2*ka*E0) @ w=28.683 (-muS*gNaS*u23z-DS*u3Tz)*e*2*pj*r/(pj*R^2*ka*E0) @ w=36.251 (-muS*gNaS*u23z-DS*u3Tz)*e*2*pj*r/(pj*R^2*ka*E0) @ w=45.816 (-muS*gNaS*u23z-DS*u3Tz)*e*2*pj*r/(pj*R^2*ka*E0) @ w=57.904 (-muS*gNaS*u23z-DS*u3Tz)*e*2*pj*r/(pj*R^2*ka*E0) @ w=73.182 (-muS*gNaS*u23z-DS*u3Tz)*e*2*pj*r/(pj*R^2*ka*E0) @ w=92.491 (-muS*gNaS*u23z-DS*u3Tz)*e*2*pj*r/(pj*R^2*ka*E0) @ w=116.9 (-muS*gNaS*u23z-DS*u3Tz)*e*2*pj*r/(pj*R^2*ka*E0) @ w=147.74 (-muS*gNaS*u23z-DS*u3Tz)*e*2*pj*r/(pj*R^2*ka*E0) @ w=186.72 (-muS*gNaS*u23z-DS*u3Tz)*e*2*pj*r/(pj*R^2*ka*E0) @ w=235.98 (-muS*gNaS*u23z-DS*u3Tz)*e*2*pj*r/(pj*R^2*ka*E0) @ w=298.25 (-muS*gNaS*u23z-DS*u3Tz)*e*2*pj*r/(pj*R^2*ka*E0) @ w=376.94 (-muS*gNaS*u23z-DS*u3Tz)*e*2*pj*r/(pj*R^2*ka*E0) @ w=476.39 (-muS*gNaS*u23z-DS*u3Tz)*e*2*pj*r/(pj*R^2*ka*E0) @ w=602.09 (-muS*gNaS*u23z-DS*u3Tz)*e*2*pj*r/(pj*R^2*ka*E0) @ w=760.95 (-muS*gNaS*u23z-DS*u3Tz)*e*2*pj*r/(pj*R^2*ka*E0) @ w=961.72 (-muS*gNaS*u23z-DS*u3Tz)*e*2*pj*r/(pj*R^2*ka*E0) @ w=1215.5 (-muS*gNaS*u23z-DS*u3Tz)*e*2*pj*r/(pj*R^2*ka*E0) @ w=1536.2 (-muS*gNaS*u23z-DS*u3Tz)*e*2*pj*r/(pj*R^2*ka*E0) @ w=1941.5 (-muS*gNaS*u23z-DS*u3Tz)*e*2*pj*r/(pj*R^2*ka*E0) @ w=2453.8 (-muS*gNaS*u23z-DS*u3Tz)*e*2*pj*r/(pj*R^2*ka*E0) @ w=3101.2 (-muS*gNaS*u23z-DS*u3Tz)*e*2*pj*r/(pj*R^2*ka*E0) @ w=3919.4 (-muS*gNaS*u23z-DS*u3Tz)*e*2*pj*r/(pj*R^2*ka*E0) @ w=4953.5 (-muS*gNaS*u23z-DS*u3Tz)*e*2*pj*r/(pj*R^2*ka*E0) @ w=6260.5 (-muS*gNaS*u23z-DS*u3Tz)*e*2*pj*r/(pj*R^2*ka*E0) @ w=7912.3 (-muS*gNaS*u23z-DS*u3Tz)*e*2*pj*r/(pj*R^2*ka*E0) @ w=10000
0                         4.785188365040554E-4-8.087648177865987E-6j        4.7834694436960995E-4-1.0213818645508052E-5j      4.7807291670379546E-4-1.2893119201172389E-5j      4.7763657557874816E-4-1.626355700196907E-5j       4.769430679980374E-4-2.0491615569968843E-5j       4.758440752341367E-4-2.5772007625252978E-5j       4.7411063330169383E-4-3.2320152054403244E-5j      4.7139652616361865E-4-4.034955138474506E-5j       4.671955691070551E-4-5.0020985674323885E-5j       4.608076891148803E-4-6.134539944004657E-5j        4.513522386066328E-4-7.4025299718907E-5j          4.3789976163269176E-4-8.724956676482827E-5j       4.198034227893163E-4-9.95383074156269E-5j         3.9721801120368475E-4-1.088489201717485E-4j       3.715432004837666E-4-1.1315011686979065E-4j       3.45319380701496E-4-1.1133457514735516E-4j        3.213859577379752E-4-1.0385395792659858E-4j       3.0181797571511343E-4-9.252693731964105E-5j       2.873856400883132E-4-7.972029871828881E-5j        2.7768875142473814E-4-6.757314493071088E-5j       2.715611443215106E-4-5.761216079185629E-5j        2.6741245907242533E-4-5.061511773357746E-5j       2.635364235987019E-4-4.65066061658328E-5j         2.5854331446137493E-4-4.433793503910346E-5j       2.5183864155279445E-4-4.2568218080255924E-5j      2.4384316400839312E-4-3.9650208111235054E-5j      2.3578515610369545E-4-3.4640137548171726E-5j      2.291588167880858E-4-2.7547314991793932E-5j       2.2507976016316613E-4-1.9259998481248135E-5j      2.2386943887655242E-4-1.1061485820489211E-5j      2.2511032841016776E-4-4.052312077624151E-6j       2.2801722214730756E-4+1.1263849240193876E-6j      2.3172970898165305E-4+4.242981489071443E-6j       2.3540710091627762E-4+5.400380447349573E-6j       2.383404373439787E-4+5.049068153774694E-6j        2.4015681597271124E-4+3.901481254008722E-6j       2.409244371457775E-4+2.672351438069077E-6j        2.4103479181646203E-4+1.8119391560298612E-6j      2.4094160436614716E-4+1.405380838083523E-6j       2.4092708381245916E-4+1.2818649961463157E-6j      2.410395137940946E-4+1.2322011117369466E-6j       2.4120277718717753E-4+1.157291643911832E-6j       2.4135322613674004E-4+1.06171221675837E-6j        2.414807463735255E-4+9.723005834093535E-7j        2.4159528553386437E-4+8.965049249468207E-7j       2.4170145617997098E-4+8.315841425066075E-7j       2.4180007728259154E-4+7.761305346072875E-7j       2.4189235285424534E-4+7.298187607201307E-7j       2.4197966726358233E-4+6.921512642368456E-7j       2.420632924682234E-4+6.626160736245275E-7j        2.4214454554290286E-4+6.40778771609061E-7j        2.4222493408548906E-4+6.260845349036207E-7j       2.4230608186850386E-4+6.175156109541538E-7j       2.4238927523041024E-4+6.133654907987887E-7j       2.424748897817046E-4+6.114220914070732E-7j        2.4256200892671645E-4+6.095721834117151E-7j       2.4264848268040952E-4+6.06568646184478E-7j        2.4273146010946994E-4+6.026236135200571E-7j       2.4280805287156995E-4+5.996347982900669E-7j       2.4287604053924077E-4+6.010209499629688E-7j
