% Model:              modelJ.mph
% Versjon:            COMSOL 6.0.0.405
% Date:               Aug 21 2023, 16:14
% Djmensjon:          1
% Nodes:              1
% Expressjons:        60
% Descrjptjon:        
% r                       (-muS*gNaS*u23z-DS*u3Tz)*e*2*pj*r/(pj*R^2*ka*E0) @ w=0.01 (-muS*gNaS*u23z-DS*u3Tz)*e*2*pj*r/(pj*R^2*ka*E0) @ w=0.012638 (-muS*gNaS*u23z-DS*u3Tz)*e*2*pj*r/(pj*R^2*ka*E0) @ w=0.015973 (-muS*gNaS*u23z-DS*u3Tz)*e*2*pj*r/(pj*R^2*ka*E0) @ w=0.020188 (-muS*gNaS*u23z-DS*u3Tz)*e*2*pj*r/(pj*R^2*ka*E0) @ w=0.025514 (-muS*gNaS*u23z-DS*u3Tz)*e*2*pj*r/(pj*R^2*ka*E0) @ w=0.032246 (-muS*gNaS*u23z-DS*u3Tz)*e*2*pj*r/(pj*R^2*ka*E0) @ w=0.040754 (-muS*gNaS*u23z-DS*u3Tz)*e*2*pj*r/(pj*R^2*ka*E0) @ w=0.051507 (-muS*gNaS*u23z-DS*u3Tz)*e*2*pj*r/(pj*R^2*ka*E0) @ w=0.065097 (-muS*gNaS*u23z-DS*u3Tz)*e*2*pj*r/(pj*R^2*ka*E0) @ w=0.082272 (-muS*gNaS*u23z-DS*u3Tz)*e*2*pj*r/(pj*R^2*ka*E0) @ w=0.10398 (-muS*gNaS*u23z-DS*u3Tz)*e*2*pj*r/(pj*R^2*ka*E0) @ w=0.13141 (-muS*gNaS*u23z-DS*u3Tz)*e*2*pj*r/(pj*R^2*ka*E0) @ w=0.16609 (-muS*gNaS*u23z-DS*u3Tz)*e*2*pj*r/(pj*R^2*ka*E0) @ w=0.20991 (-muS*gNaS*u23z-DS*u3Tz)*e*2*pj*r/(pj*R^2*ka*E0) @ w=0.26529 (-muS*gNaS*u23z-DS*u3Tz)*e*2*pj*r/(pj*R^2*ka*E0) @ w=0.33529 (-muS*gNaS*u23z-DS*u3Tz)*e*2*pj*r/(pj*R^2*ka*E0) @ w=0.42376 (-muS*gNaS*u23z-DS*u3Tz)*e*2*pj*r/(pj*R^2*ka*E0) @ w=0.53557 (-muS*gNaS*u23z-DS*u3Tz)*e*2*pj*r/(pj*R^2*ka*E0) @ w=0.67688 (-muS*gNaS*u23z-DS*u3Tz)*e*2*pj*r/(pj*R^2*ka*E0) @ w=0.85547 (-muS*gNaS*u23z-DS*u3Tz)*e*2*pj*r/(pj*R^2*ka*E0) @ w=1.0812 (-muS*gNaS*u23z-DS*u3Tz)*e*2*pj*r/(pj*R^2*ka*E0) @ w=1.3664 (-muS*gNaS*u23z-DS*u3Tz)*e*2*pj*r/(pj*R^2*ka*E0) @ w=1.727 (-muS*gNaS*u23z-DS*u3Tz)*e*2*pj*r/(pj*R^2*ka*E0) @ w=2.1826 (-muS*gNaS*u23z-DS*u3Tz)*e*2*pj*r/(pj*R^2*ka*E0) @ w=2.7585 (-muS*gNaS*u23z-DS*u3Tz)*e*2*pj*r/(pj*R^2*ka*E0) @ w=3.4864 (-muS*gNaS*u23z-DS*u3Tz)*e*2*pj*r/(pj*R^2*ka*E0) @ w=4.4062 (-muS*gNaS*u23z-DS*u3Tz)*e*2*pj*r/(pj*R^2*ka*E0) @ w=5.5688 (-muS*gNaS*u23z-DS*u3Tz)*e*2*pj*r/(pj*R^2*ka*E0) @ w=7.0381 (-muS*gNaS*u23z-DS*u3Tz)*e*2*pj*r/(pj*R^2*ka*E0) @ w=8.8951 (-muS*gNaS*u23z-DS*u3Tz)*e*2*pj*r/(pj*R^2*ka*E0) @ w=11.242 (-muS*gNaS*u23z-DS*u3Tz)*e*2*pj*r/(pj*R^2*ka*E0) @ w=14.208 (-muS*gNaS*u23z-DS*u3Tz)*e*2*pj*r/(pj*R^2*ka*E0) @ w=17.957 (-muS*gNaS*u23z-DS*u3Tz)*e*2*pj*r/(pj*R^2*ka*E0) @ w=22.695 (-muS*gNaS*u23z-DS*u3Tz)*e*2*pj*r/(pj*R^2*ka*E0) @ w=28.683 (-muS*gNaS*u23z-DS*u3Tz)*e*2*pj*r/(pj*R^2*ka*E0) @ w=36.251 (-muS*gNaS*u23z-DS*u3Tz)*e*2*pj*r/(pj*R^2*ka*E0) @ w=45.816 (-muS*gNaS*u23z-DS*u3Tz)*e*2*pj*r/(pj*R^2*ka*E0) @ w=57.904 (-muS*gNaS*u23z-DS*u3Tz)*e*2*pj*r/(pj*R^2*ka*E0) @ w=73.182 (-muS*gNaS*u23z-DS*u3Tz)*e*2*pj*r/(pj*R^2*ka*E0) @ w=92.491 (-muS*gNaS*u23z-DS*u3Tz)*e*2*pj*r/(pj*R^2*ka*E0) @ w=116.9 (-muS*gNaS*u23z-DS*u3Tz)*e*2*pj*r/(pj*R^2*ka*E0) @ w=147.74 (-muS*gNaS*u23z-DS*u3Tz)*e*2*pj*r/(pj*R^2*ka*E0) @ w=186.72 (-muS*gNaS*u23z-DS*u3Tz)*e*2*pj*r/(pj*R^2*ka*E0) @ w=235.98 (-muS*gNaS*u23z-DS*u3Tz)*e*2*pj*r/(pj*R^2*ka*E0) @ w=298.25 (-muS*gNaS*u23z-DS*u3Tz)*e*2*pj*r/(pj*R^2*ka*E0) @ w=376.94 (-muS*gNaS*u23z-DS*u3Tz)*e*2*pj*r/(pj*R^2*ka*E0) @ w=476.39 (-muS*gNaS*u23z-DS*u3Tz)*e*2*pj*r/(pj*R^2*ka*E0) @ w=602.09 (-muS*gNaS*u23z-DS*u3Tz)*e*2*pj*r/(pj*R^2*ka*E0) @ w=760.95 (-muS*gNaS*u23z-DS*u3Tz)*e*2*pj*r/(pj*R^2*ka*E0) @ w=961.72 (-muS*gNaS*u23z-DS*u3Tz)*e*2*pj*r/(pj*R^2*ka*E0) @ w=1215.5 (-muS*gNaS*u23z-DS*u3Tz)*e*2*pj*r/(pj*R^2*ka*E0) @ w=1536.2 (-muS*gNaS*u23z-DS*u3Tz)*e*2*pj*r/(pj*R^2*ka*E0) @ w=1941.5 (-muS*gNaS*u23z-DS*u3Tz)*e*2*pj*r/(pj*R^2*ka*E0) @ w=2453.8 (-muS*gNaS*u23z-DS*u3Tz)*e*2*pj*r/(pj*R^2*ka*E0) @ w=3101.2 (-muS*gNaS*u23z-DS*u3Tz)*e*2*pj*r/(pj*R^2*ka*E0) @ w=3919.4 (-muS*gNaS*u23z-DS*u3Tz)*e*2*pj*r/(pj*R^2*ka*E0) @ w=4953.5 (-muS*gNaS*u23z-DS*u3Tz)*e*2*pj*r/(pj*R^2*ka*E0) @ w=6260.5 (-muS*gNaS*u23z-DS*u3Tz)*e*2*pj*r/(pj*R^2*ka*E0) @ w=7912.3 (-muS*gNaS*u23z-DS*u3Tz)*e*2*pj*r/(pj*R^2*ka*E0) @ w=10000
0                         4.783259292021323E-4-1.4093648173830732E-5j       4.7803896106173477E-4-1.7800244874746283E-5j      4.775813532152576E-4-2.2472648867380237E-5j       4.768523683831198E-4-2.8353376038657794E-5j       4.756929209135833E-4-3.5736585249770194E-5j       4.7385349310862294E-4-4.496955849295734E-5j       4.70947003403139E-4-5.644312868209952E-5j         4.6638349404248206E-4-7.055842849550233E-5j       4.592892243028371E-4-8.764799498178163E-5j        4.4842968051030796E-4-1.0781829117041217E-4j      4.3219364175211053E-4-1.3067829583314058E-4j      4.0875675463929287E-4-1.5495419291627452E-4j      3.765910670780607E-4-1.7811294280834481E-4j       3.353941082595585E-4-1.9633807643869752E-4j       2.8711456639732893E-4-2.0532404077107218E-4j      2.3622400800188786E-4-2.01939231130588E-4j        1.885341941460506E-4-1.858283347194036E-4j        1.491079662338541E-4-1.5964616693700837E-4j       1.207782467318277E-4-1.2777851336125988E-4j       1.0405073938638771E-4-9.475438749141447E-5j       9.779352703844815E-5-6.438515902321078E-5j        9.980553700727609E-5-3.958044585765758E-5j        1.0702865886977958E-4-2.2210509623093125E-5j      1.1584274433569077E-4-1.2682453040634123E-5j      1.2288451293250853E-4-9.588880386714036E-6j       1.2617002915230442E-4-1.0063264170448607E-5j      1.2575481053052256E-4-1.0955478364139749E-5j      1.233681742706847E-4-1.0205830827402546E-5j       1.2117248607845912E-4-7.54315283144966E-6j        1.2047641657347568E-4-4.051084874518859E-6j       1.2130077710169267E-4-1.0291027136811382E-6j      1.229151405791E-4+8.668820257768875E-7j           1.246003027469427E-4+1.6676937499595765E-6j       1.259543287386371E-4+1.6911256555804427E-6j       1.2681569851054111E-4+1.2851120143660156E-6j      1.2718839032532572E-4+7.729294341882615E-7j       1.2722196040085743E-4+3.8970087823692974E-7j      1.2712614420875965E-4+2.125379101724945E-7j       1.2705334173234765E-4+1.8248474317734554E-7j      1.2704715887976674E-4+1.9969565226950127E-7j      1.2707850365435816E-4+2.0521826450659472E-7j      1.2711235918733032E-4+1.9381759516249814E-7j      1.2713860134006683E-4+1.7889335579180937E-7j      1.2716080591732354E-4+1.6638639126720325E-7j      1.2718124082087485E-4+1.5568082088118522E-7j      1.2719972703607673E-4+1.463361196513047E-7j       1.2721618888854734E-4+1.3878962497846588E-7j      1.2723088789786755E-4+1.3349703201933724E-7j      1.272441923514122E-4+1.308746229064978E-7j        1.2725658199554883E-4+1.3131124085239316E-7j      1.2726863502900674E-4+1.3511687861117041E-7j      1.2728096554129068E-4+1.424646689550359E-7j       1.272940971178496E-4+1.5337587583403015E-7j       1.2730831402192895E-4+1.6780174795817113E-7j      1.27323569823703E-4+1.8580147021304458E-7j        1.2733949185387663E-4+2.077581397915647E-7j       1.2735547466791576E-4+2.345698217160687E-7j       1.2737081670621573E-4+2.6779077860754085E-7j      1.2738486883084752E-4+3.097210693373393E-7j       1.2739716010697684E-4+3.634462427940468E-7j
