% Model:              modelJ.mph
% Versjon:            COMSOL 6.0.0.405
% Date:               Aug 21 2023, 15:56
% Djmensjon:          1
% Nodes:              1
% Expressjons:        60
% Descrjptjon:        
% r                       (-muS*gNaS*u23z-DS*u3Tz)*e*2*pj*r/(pj*R^2*ka*E0) @ w=0.01 (-muS*gNaS*u23z-DS*u3Tz)*e*2*pj*r/(pj*R^2*ka*E0) @ w=0.012638 (-muS*gNaS*u23z-DS*u3Tz)*e*2*pj*r/(pj*R^2*ka*E0) @ w=0.015973 (-muS*gNaS*u23z-DS*u3Tz)*e*2*pj*r/(pj*R^2*ka*E0) @ w=0.020188 (-muS*gNaS*u23z-DS*u3Tz)*e*2*pj*r/(pj*R^2*ka*E0) @ w=0.025514 (-muS*gNaS*u23z-DS*u3Tz)*e*2*pj*r/(pj*R^2*ka*E0) @ w=0.032246 (-muS*gNaS*u23z-DS*u3Tz)*e*2*pj*r/(pj*R^2*ka*E0) @ w=0.040754 (-muS*gNaS*u23z-DS*u3Tz)*e*2*pj*r/(pj*R^2*ka*E0) @ w=0.051507 (-muS*gNaS*u23z-DS*u3Tz)*e*2*pj*r/(pj*R^2*ka*E0) @ w=0.065097 (-muS*gNaS*u23z-DS*u3Tz)*e*2*pj*r/(pj*R^2*ka*E0) @ w=0.082272 (-muS*gNaS*u23z-DS*u3Tz)*e*2*pj*r/(pj*R^2*ka*E0) @ w=0.10398 (-muS*gNaS*u23z-DS*u3Tz)*e*2*pj*r/(pj*R^2*ka*E0) @ w=0.13141 (-muS*gNaS*u23z-DS*u3Tz)*e*2*pj*r/(pj*R^2*ka*E0) @ w=0.16609 (-muS*gNaS*u23z-DS*u3Tz)*e*2*pj*r/(pj*R^2*ka*E0) @ w=0.20991 (-muS*gNaS*u23z-DS*u3Tz)*e*2*pj*r/(pj*R^2*ka*E0) @ w=0.26529 (-muS*gNaS*u23z-DS*u3Tz)*e*2*pj*r/(pj*R^2*ka*E0) @ w=0.33529 (-muS*gNaS*u23z-DS*u3Tz)*e*2*pj*r/(pj*R^2*ka*E0) @ w=0.42376 (-muS*gNaS*u23z-DS*u3Tz)*e*2*pj*r/(pj*R^2*ka*E0) @ w=0.53557 (-muS*gNaS*u23z-DS*u3Tz)*e*2*pj*r/(pj*R^2*ka*E0) @ w=0.67688 (-muS*gNaS*u23z-DS*u3Tz)*e*2*pj*r/(pj*R^2*ka*E0) @ w=0.85547 (-muS*gNaS*u23z-DS*u3Tz)*e*2*pj*r/(pj*R^2*ka*E0) @ w=1.0812 (-muS*gNaS*u23z-DS*u3Tz)*e*2*pj*r/(pj*R^2*ka*E0) @ w=1.3664 (-muS*gNaS*u23z-DS*u3Tz)*e*2*pj*r/(pj*R^2*ka*E0) @ w=1.727 (-muS*gNaS*u23z-DS*u3Tz)*e*2*pj*r/(pj*R^2*ka*E0) @ w=2.1826 (-muS*gNaS*u23z-DS*u3Tz)*e*2*pj*r/(pj*R^2*ka*E0) @ w=2.7585 (-muS*gNaS*u23z-DS*u3Tz)*e*2*pj*r/(pj*R^2*ka*E0) @ w=3.4864 (-muS*gNaS*u23z-DS*u3Tz)*e*2*pj*r/(pj*R^2*ka*E0) @ w=4.4062 (-muS*gNaS*u23z-DS*u3Tz)*e*2*pj*r/(pj*R^2*ka*E0) @ w=5.5688 (-muS*gNaS*u23z-DS*u3Tz)*e*2*pj*r/(pj*R^2*ka*E0) @ w=7.0381 (-muS*gNaS*u23z-DS*u3Tz)*e*2*pj*r/(pj*R^2*ka*E0) @ w=8.8951 (-muS*gNaS*u23z-DS*u3Tz)*e*2*pj*r/(pj*R^2*ka*E0) @ w=11.242 (-muS*gNaS*u23z-DS*u3Tz)*e*2*pj*r/(pj*R^2*ka*E0) @ w=14.208 (-muS*gNaS*u23z-DS*u3Tz)*e*2*pj*r/(pj*R^2*ka*E0) @ w=17.957 (-muS*gNaS*u23z-DS*u3Tz)*e*2*pj*r/(pj*R^2*ka*E0) @ w=22.695 (-muS*gNaS*u23z-DS*u3Tz)*e*2*pj*r/(pj*R^2*ka*E0) @ w=28.683 (-muS*gNaS*u23z-DS*u3Tz)*e*2*pj*r/(pj*R^2*ka*E0) @ w=36.251 (-muS*gNaS*u23z-DS*u3Tz)*e*2*pj*r/(pj*R^2*ka*E0) @ w=45.816 (-muS*gNaS*u23z-DS*u3Tz)*e*2*pj*r/(pj*R^2*ka*E0) @ w=57.904 (-muS*gNaS*u23z-DS*u3Tz)*e*2*pj*r/(pj*R^2*ka*E0) @ w=73.182 (-muS*gNaS*u23z-DS*u3Tz)*e*2*pj*r/(pj*R^2*ka*E0) @ w=92.491 (-muS*gNaS*u23z-DS*u3Tz)*e*2*pj*r/(pj*R^2*ka*E0) @ w=116.9 (-muS*gNaS*u23z-DS*u3Tz)*e*2*pj*r/(pj*R^2*ka*E0) @ w=147.74 (-muS*gNaS*u23z-DS*u3Tz)*e*2*pj*r/(pj*R^2*ka*E0) @ w=186.72 (-muS*gNaS*u23z-DS*u3Tz)*e*2*pj*r/(pj*R^2*ka*E0) @ w=235.98 (-muS*gNaS*u23z-DS*u3Tz)*e*2*pj*r/(pj*R^2*ka*E0) @ w=298.25 (-muS*gNaS*u23z-DS*u3Tz)*e*2*pj*r/(pj*R^2*ka*E0) @ w=376.94 (-muS*gNaS*u23z-DS*u3Tz)*e*2*pj*r/(pj*R^2*ka*E0) @ w=476.39 (-muS*gNaS*u23z-DS*u3Tz)*e*2*pj*r/(pj*R^2*ka*E0) @ w=602.09 (-muS*gNaS*u23z-DS*u3Tz)*e*2*pj*r/(pj*R^2*ka*E0) @ w=760.95 (-muS*gNaS*u23z-DS*u3Tz)*e*2*pj*r/(pj*R^2*ka*E0) @ w=961.72 (-muS*gNaS*u23z-DS*u3Tz)*e*2*pj*r/(pj*R^2*ka*E0) @ w=1215.5 (-muS*gNaS*u23z-DS*u3Tz)*e*2*pj*r/(pj*R^2*ka*E0) @ w=1536.2 (-muS*gNaS*u23z-DS*u3Tz)*e*2*pj*r/(pj*R^2*ka*E0) @ w=1941.5 (-muS*gNaS*u23z-DS*u3Tz)*e*2*pj*r/(pj*R^2*ka*E0) @ w=2453.8 (-muS*gNaS*u23z-DS*u3Tz)*e*2*pj*r/(pj*R^2*ka*E0) @ w=3101.2 (-muS*gNaS*u23z-DS*u3Tz)*e*2*pj*r/(pj*R^2*ka*E0) @ w=3919.4 (-muS*gNaS*u23z-DS*u3Tz)*e*2*pj*r/(pj*R^2*ka*E0) @ w=4953.5 (-muS*gNaS*u23z-DS*u3Tz)*e*2*pj*r/(pj*R^2*ka*E0) @ w=6260.5 (-muS*gNaS*u23z-DS*u3Tz)*e*2*pj*r/(pj*R^2*ka*E0) @ w=7912.3 (-muS*gNaS*u23z-DS*u3Tz)*e*2*pj*r/(pj*R^2*ka*E0) @ w=10000
0                         4.784627205074262E-4-1.2860026360136834E-5j       4.782571759703756E-4-1.6246461286326963E-5j       4.779291887576166E-4-2.0519629577627632E-5j       4.7740613510852055E-4-2.590662563740778E-5j       4.765728025735005E-4-3.2687530901876064E-5j       4.752471618195659E-4-4.120247838507037E-5j        4.731434974118064E-4-5.185385290326852E-5j        4.698180453747841E-4-6.509617153410654E-5j        4.6459315831712597E-4-8.139935408684994E-5j       4.5646209493223306E-4-1.0116028392641272E-4j      4.43995113023808E-4-1.245243378624676E-4j         4.253098572289814E-4-1.5107371532431638E-4j       3.9824050252709205E-4-1.7937526460230985E-4j      3.609036001469741E-4-2.065153713156008E-4j        3.1277274874269665E-4-2.2800696701250552E-4j      2.559361285751559E-4-2.386322446563284E-4j        1.955630934503777E-4-2.3436664210048345E-4j       1.3866377530692827E-4-2.1438393381920248E-4j      9.163135287968048E-5-1.8154722894910422E-4j       5.834260802520877E-5-1.410383478391674E-4j        3.9877888991635925E-5-9.848244896314128E-5j       3.5230956527362505E-5-5.887997747922062E-5j       4.1880420809581305E-5-2.63318803998146E-5j        5.593069891738948E-5-3.740944208115951E-6j        7.246318303162888E-5+7.929877743984625E-6j        8.670683544926018E-5+1.0264775304089748E-5j       9.56383807904359E-5+6.956703033122253E-6j         9.891350342432891E-5+2.2453241005681906E-6j       9.844328570879013E-5-8.753020564855125E-7j        9.687597259225856E-5-1.5937642003813377E-6j       9.599425072390964E-5-8.359175844416627E-7j        9.611002854183005E-5+7.754954059473623E-8j        9.665798384359402E-5+4.926097103526764E-7j        9.711547012295529E-5+4.840441528604946E-7j        9.734974763051994E-5+3.2919445698085866E-7j       9.74268939264633E-5+1.802278336092232E-7j         9.742142884598094E-5+8.349361040857244E-8j        9.739054403432107E-5+4.523201949490636E-8j        9.737172521214431E-5+4.418614745004944E-8j        9.737234663945727E-5+5.198336970741311E-8j        9.738189724831075E-5+5.468337436570298E-8j        9.739119379015577E-5+5.2882343752607346E-8j       9.739851759608142E-5+5.0485717286139474E-8j       9.740504872567163E-5+4.867280100284779E-8j        9.741115357051667E-5+4.715973401309389E-8j        9.741659840125378E-5+4.5952791396340604E-8j       9.7421240334008E-5+4.534232389176387E-8j          9.742505021721836E-5+4.568593749632333E-8j        9.74280828502871E-5+4.739154698966943E-8j         9.743048080335832E-5+5.089381616221015E-8j        9.743245461380992E-5+5.662512756011699E-8j        9.743423283188705E-5+6.500752508967026E-8j        9.743600865091596E-5+7.648187967757533E-8j        9.743789593842905E-5+9.157431832854728E-8j        9.743991795006249E-5+1.1098627973270079E-7j       9.744202412818395E-5+1.356852915639328E-7j        9.744412412554133E-5+1.6698883122416842E-7j       9.744611849352279E-5+2.0664466780860882E-7j       9.744792630426726E-5+2.569191295537895E-7j        9.744950150420825E-5+3.207036900039311E-7j
