% Model:              modelJ.mph
% Versjon:            COMSOL 6.0.0.405
% Date:               Aug 22 2023, 10:53
% Djmensjon:          1
% Nodes:              1
% Expressjons:        60
% Descrjptjon:        
% r                       (-muS*gNaS*u23z-DS*u3Tz)*e*2*pj*r/(pj*R^2*ka*E0) @ w=0.01 (-muS*gNaS*u23z-DS*u3Tz)*e*2*pj*r/(pj*R^2*ka*E0) @ w=0.012638 (-muS*gNaS*u23z-DS*u3Tz)*e*2*pj*r/(pj*R^2*ka*E0) @ w=0.015973 (-muS*gNaS*u23z-DS*u3Tz)*e*2*pj*r/(pj*R^2*ka*E0) @ w=0.020188 (-muS*gNaS*u23z-DS*u3Tz)*e*2*pj*r/(pj*R^2*ka*E0) @ w=0.025514 (-muS*gNaS*u23z-DS*u3Tz)*e*2*pj*r/(pj*R^2*ka*E0) @ w=0.032246 (-muS*gNaS*u23z-DS*u3Tz)*e*2*pj*r/(pj*R^2*ka*E0) @ w=0.040754 (-muS*gNaS*u23z-DS*u3Tz)*e*2*pj*r/(pj*R^2*ka*E0) @ w=0.051507 (-muS*gNaS*u23z-DS*u3Tz)*e*2*pj*r/(pj*R^2*ka*E0) @ w=0.065097 (-muS*gNaS*u23z-DS*u3Tz)*e*2*pj*r/(pj*R^2*ka*E0) @ w=0.082272 (-muS*gNaS*u23z-DS*u3Tz)*e*2*pj*r/(pj*R^2*ka*E0) @ w=0.10398 (-muS*gNaS*u23z-DS*u3Tz)*e*2*pj*r/(pj*R^2*ka*E0) @ w=0.13141 (-muS*gNaS*u23z-DS*u3Tz)*e*2*pj*r/(pj*R^2*ka*E0) @ w=0.16609 (-muS*gNaS*u23z-DS*u3Tz)*e*2*pj*r/(pj*R^2*ka*E0) @ w=0.20991 (-muS*gNaS*u23z-DS*u3Tz)*e*2*pj*r/(pj*R^2*ka*E0) @ w=0.26529 (-muS*gNaS*u23z-DS*u3Tz)*e*2*pj*r/(pj*R^2*ka*E0) @ w=0.33529 (-muS*gNaS*u23z-DS*u3Tz)*e*2*pj*r/(pj*R^2*ka*E0) @ w=0.42376 (-muS*gNaS*u23z-DS*u3Tz)*e*2*pj*r/(pj*R^2*ka*E0) @ w=0.53557 (-muS*gNaS*u23z-DS*u3Tz)*e*2*pj*r/(pj*R^2*ka*E0) @ w=0.67688 (-muS*gNaS*u23z-DS*u3Tz)*e*2*pj*r/(pj*R^2*ka*E0) @ w=0.85547 (-muS*gNaS*u23z-DS*u3Tz)*e*2*pj*r/(pj*R^2*ka*E0) @ w=1.0812 (-muS*gNaS*u23z-DS*u3Tz)*e*2*pj*r/(pj*R^2*ka*E0) @ w=1.3664 (-muS*gNaS*u23z-DS*u3Tz)*e*2*pj*r/(pj*R^2*ka*E0) @ w=1.727 (-muS*gNaS*u23z-DS*u3Tz)*e*2*pj*r/(pj*R^2*ka*E0) @ w=2.1826 (-muS*gNaS*u23z-DS*u3Tz)*e*2*pj*r/(pj*R^2*ka*E0) @ w=2.7585 (-muS*gNaS*u23z-DS*u3Tz)*e*2*pj*r/(pj*R^2*ka*E0) @ w=3.4864 (-muS*gNaS*u23z-DS*u3Tz)*e*2*pj*r/(pj*R^2*ka*E0) @ w=4.4062 (-muS*gNaS*u23z-DS*u3Tz)*e*2*pj*r/(pj*R^2*ka*E0) @ w=5.5688 (-muS*gNaS*u23z-DS*u3Tz)*e*2*pj*r/(pj*R^2*ka*E0) @ w=7.0381 (-muS*gNaS*u23z-DS*u3Tz)*e*2*pj*r/(pj*R^2*ka*E0) @ w=8.8951 (-muS*gNaS*u23z-DS*u3Tz)*e*2*pj*r/(pj*R^2*ka*E0) @ w=11.242 (-muS*gNaS*u23z-DS*u3Tz)*e*2*pj*r/(pj*R^2*ka*E0) @ w=14.208 (-muS*gNaS*u23z-DS*u3Tz)*e*2*pj*r/(pj*R^2*ka*E0) @ w=17.957 (-muS*gNaS*u23z-DS*u3Tz)*e*2*pj*r/(pj*R^2*ka*E0) @ w=22.695 (-muS*gNaS*u23z-DS*u3Tz)*e*2*pj*r/(pj*R^2*ka*E0) @ w=28.683 (-muS*gNaS*u23z-DS*u3Tz)*e*2*pj*r/(pj*R^2*ka*E0) @ w=36.251 (-muS*gNaS*u23z-DS*u3Tz)*e*2*pj*r/(pj*R^2*ka*E0) @ w=45.816 (-muS*gNaS*u23z-DS*u3Tz)*e*2*pj*r/(pj*R^2*ka*E0) @ w=57.904 (-muS*gNaS*u23z-DS*u3Tz)*e*2*pj*r/(pj*R^2*ka*E0) @ w=73.182 (-muS*gNaS*u23z-DS*u3Tz)*e*2*pj*r/(pj*R^2*ka*E0) @ w=92.491 (-muS*gNaS*u23z-DS*u3Tz)*e*2*pj*r/(pj*R^2*ka*E0) @ w=116.9 (-muS*gNaS*u23z-DS*u3Tz)*e*2*pj*r/(pj*R^2*ka*E0) @ w=147.74 (-muS*gNaS*u23z-DS*u3Tz)*e*2*pj*r/(pj*R^2*ka*E0) @ w=186.72 (-muS*gNaS*u23z-DS*u3Tz)*e*2*pj*r/(pj*R^2*ka*E0) @ w=235.98 (-muS*gNaS*u23z-DS*u3Tz)*e*2*pj*r/(pj*R^2*ka*E0) @ w=298.25 (-muS*gNaS*u23z-DS*u3Tz)*e*2*pj*r/(pj*R^2*ka*E0) @ w=376.94 (-muS*gNaS*u23z-DS*u3Tz)*e*2*pj*r/(pj*R^2*ka*E0) @ w=476.39 (-muS*gNaS*u23z-DS*u3Tz)*e*2*pj*r/(pj*R^2*ka*E0) @ w=602.09 (-muS*gNaS*u23z-DS*u3Tz)*e*2*pj*r/(pj*R^2*ka*E0) @ w=760.95 (-muS*gNaS*u23z-DS*u3Tz)*e*2*pj*r/(pj*R^2*ka*E0) @ w=961.72 (-muS*gNaS*u23z-DS*u3Tz)*e*2*pj*r/(pj*R^2*ka*E0) @ w=1215.5 (-muS*gNaS*u23z-DS*u3Tz)*e*2*pj*r/(pj*R^2*ka*E0) @ w=1536.2 (-muS*gNaS*u23z-DS*u3Tz)*e*2*pj*r/(pj*R^2*ka*E0) @ w=1941.5 (-muS*gNaS*u23z-DS*u3Tz)*e*2*pj*r/(pj*R^2*ka*E0) @ w=2453.8 (-muS*gNaS*u23z-DS*u3Tz)*e*2*pj*r/(pj*R^2*ka*E0) @ w=3101.2 (-muS*gNaS*u23z-DS*u3Tz)*e*2*pj*r/(pj*R^2*ka*E0) @ w=3919.4 (-muS*gNaS*u23z-DS*u3Tz)*e*2*pj*r/(pj*R^2*ka*E0) @ w=4953.5 (-muS*gNaS*u23z-DS*u3Tz)*e*2*pj*r/(pj*R^2*ka*E0) @ w=6260.5 (-muS*gNaS*u23z-DS*u3Tz)*e*2*pj*r/(pj*R^2*ka*E0) @ w=7912.3 (-muS*gNaS*u23z-DS*u3Tz)*e*2*pj*r/(pj*R^2*ka*E0) @ w=10000
0                         5.753474465668856E-4-1.3445996709477967E-5j       5.751643556563277E-4-1.6988656925212294E-5j       5.74872115661089E-4-2.1460912591592296E-5j        5.744058607064483E-4-2.7102826811132718E-5j       5.73662489726765E-4-3.4212532394064094E-5j        5.72478611832646E-4-4.315626392035323E-5j         5.705965122900273E-4-5.4375823438537415E-5j       5.676127685633843E-4-6.83878718787476E-5j         5.629035099090934E-4-8.576374255476548E-5j        5.555227125162047E-4-1.0706862074115027E-4j       5.440808961812363E-4-1.3272418741665617E-4j       5.266418591313837E-4-1.6274335814342924E-4j       5.007386559077391E-4-1.9628913926055593E-4j       4.6370456619135466E-4-2.310826175437388E-4j       4.135630115316739E-4-2.629012635829901E-4j        3.505043252272105E-4-2.8574398083718575E-4j       2.782983360867432E-4-2.9331154845480304E-4j       2.0430232279984993E-4-2.8161346428785664E-4j      1.373086179421899E-4-2.510628081552846E-4j        8.447707930919141E-5-2.0632246001426683E-4j       4.9554930185600536E-5-1.5421327934563202E-4j      3.3031685723778916E-5-1.0161231217162174E-4j      3.304132435276719E-5-5.449990516789133E-5j        4.584708018341733E-5-1.7672105991027058E-5j       6.60078717779108E-5+5.864925790827621E-6j         8.716277436609467E-5+1.5905561407420292E-5j       1.0381252759083113E-4+1.544363374978191E-5j       1.1318089276256355E-4+9.585060958945068E-6j       1.1584808068929439E-4+3.3613389037272706E-6j      1.146998140195692E-4-2.6921238087483746E-7j       1.1286419311914495E-4-1.0513291245711304E-6j      1.1201483998554857E-4-4.1595552058588123E-7j      1.1213542885742278E-4+2.1519289374569135E-7j      1.1252012373270961E-4+3.700009330881098E-7j       1.1274343297359026E-4+2.6155070011688844E-7j      1.1280018351600199E-4+1.4153259119438077E-7j      1.1279336507559953E-4+7.6102467637685E-8j         1.1277565659260623E-4+5.249223917624234E-8j       1.127669500345733E-4+5.2003525347154956E-8j       1.127709070785785E-4+5.6953674725697274E-8j       1.127805543118481E-4+5.840292499353795E-8j        1.1278983843134245E-4+5.693620657572957E-8j       1.1279773280450456E-4+5.5183743553183944E-8j      1.1280504892235552E-4+5.3884011297165517E-8j      1.1281198916962238E-4+5.282330201689337E-8j       1.1281831841566352E-4+5.2021370773321095E-8j      1.128238393918812E-4+5.174854625942165E-8j        1.1282844155329153E-4+5.239329967059856E-8j       1.128321084384599E-4+5.443738834094574E-8j        1.1283492773897215E-4+5.8423295749133876E-8j      1.1283707745504324E-4+6.492238349337819E-8j       1.1283878355243274E-4+7.45210015111364E-8j        1.1284026389340117E-4+8.784040657754422E-8j       1.1284167864910736E-4+1.0559810443001808E-7j      1.1284310268057687E-4+1.28701848658825E-7j        1.1284453366304661E-4+1.5835767655667356E-7j      1.1284592360377726E-4+1.9617517400633564E-7j      1.1284721654547942E-4+2.442663675749169E-7j       1.1284837708312845E-4+3.05348884544971E-7j        1.1284940107600893E-4+3.8287440230146365E-7j
