% Model:              modelJ.mph
% Versjon:            COMSOL 6.0.0.405
% Date:               Aug 22 2023, 11:21
% Djmensjon:          1
% Nodes:              1
% Expressjons:        60
% Descrjptjon:        
% r                       (-muS*gNaS*u23z-DS*u3Tz)*e*2*pj*r/(pj*R^2*ka*E0) @ w=0.01 (-muS*gNaS*u23z-DS*u3Tz)*e*2*pj*r/(pj*R^2*ka*E0) @ w=0.012638 (-muS*gNaS*u23z-DS*u3Tz)*e*2*pj*r/(pj*R^2*ka*E0) @ w=0.015973 (-muS*gNaS*u23z-DS*u3Tz)*e*2*pj*r/(pj*R^2*ka*E0) @ w=0.020188 (-muS*gNaS*u23z-DS*u3Tz)*e*2*pj*r/(pj*R^2*ka*E0) @ w=0.025514 (-muS*gNaS*u23z-DS*u3Tz)*e*2*pj*r/(pj*R^2*ka*E0) @ w=0.032246 (-muS*gNaS*u23z-DS*u3Tz)*e*2*pj*r/(pj*R^2*ka*E0) @ w=0.040754 (-muS*gNaS*u23z-DS*u3Tz)*e*2*pj*r/(pj*R^2*ka*E0) @ w=0.051507 (-muS*gNaS*u23z-DS*u3Tz)*e*2*pj*r/(pj*R^2*ka*E0) @ w=0.065097 (-muS*gNaS*u23z-DS*u3Tz)*e*2*pj*r/(pj*R^2*ka*E0) @ w=0.082272 (-muS*gNaS*u23z-DS*u3Tz)*e*2*pj*r/(pj*R^2*ka*E0) @ w=0.10398 (-muS*gNaS*u23z-DS*u3Tz)*e*2*pj*r/(pj*R^2*ka*E0) @ w=0.13141 (-muS*gNaS*u23z-DS*u3Tz)*e*2*pj*r/(pj*R^2*ka*E0) @ w=0.16609 (-muS*gNaS*u23z-DS*u3Tz)*e*2*pj*r/(pj*R^2*ka*E0) @ w=0.20991 (-muS*gNaS*u23z-DS*u3Tz)*e*2*pj*r/(pj*R^2*ka*E0) @ w=0.26529 (-muS*gNaS*u23z-DS*u3Tz)*e*2*pj*r/(pj*R^2*ka*E0) @ w=0.33529 (-muS*gNaS*u23z-DS*u3Tz)*e*2*pj*r/(pj*R^2*ka*E0) @ w=0.42376 (-muS*gNaS*u23z-DS*u3Tz)*e*2*pj*r/(pj*R^2*ka*E0) @ w=0.53557 (-muS*gNaS*u23z-DS*u3Tz)*e*2*pj*r/(pj*R^2*ka*E0) @ w=0.67688 (-muS*gNaS*u23z-DS*u3Tz)*e*2*pj*r/(pj*R^2*ka*E0) @ w=0.85547 (-muS*gNaS*u23z-DS*u3Tz)*e*2*pj*r/(pj*R^2*ka*E0) @ w=1.0812 (-muS*gNaS*u23z-DS*u3Tz)*e*2*pj*r/(pj*R^2*ka*E0) @ w=1.3664 (-muS*gNaS*u23z-DS*u3Tz)*e*2*pj*r/(pj*R^2*ka*E0) @ w=1.727 (-muS*gNaS*u23z-DS*u3Tz)*e*2*pj*r/(pj*R^2*ka*E0) @ w=2.1826 (-muS*gNaS*u23z-DS*u3Tz)*e*2*pj*r/(pj*R^2*ka*E0) @ w=2.7585 (-muS*gNaS*u23z-DS*u3Tz)*e*2*pj*r/(pj*R^2*ka*E0) @ w=3.4864 (-muS*gNaS*u23z-DS*u3Tz)*e*2*pj*r/(pj*R^2*ka*E0) @ w=4.4062 (-muS*gNaS*u23z-DS*u3Tz)*e*2*pj*r/(pj*R^2*ka*E0) @ w=5.5688 (-muS*gNaS*u23z-DS*u3Tz)*e*2*pj*r/(pj*R^2*ka*E0) @ w=7.0381 (-muS*gNaS*u23z-DS*u3Tz)*e*2*pj*r/(pj*R^2*ka*E0) @ w=8.8951 (-muS*gNaS*u23z-DS*u3Tz)*e*2*pj*r/(pj*R^2*ka*E0) @ w=11.242 (-muS*gNaS*u23z-DS*u3Tz)*e*2*pj*r/(pj*R^2*ka*E0) @ w=14.208 (-muS*gNaS*u23z-DS*u3Tz)*e*2*pj*r/(pj*R^2*ka*E0) @ w=17.957 (-muS*gNaS*u23z-DS*u3Tz)*e*2*pj*r/(pj*R^2*ka*E0) @ w=22.695 (-muS*gNaS*u23z-DS*u3Tz)*e*2*pj*r/(pj*R^2*ka*E0) @ w=28.683 (-muS*gNaS*u23z-DS*u3Tz)*e*2*pj*r/(pj*R^2*ka*E0) @ w=36.251 (-muS*gNaS*u23z-DS*u3Tz)*e*2*pj*r/(pj*R^2*ka*E0) @ w=45.816 (-muS*gNaS*u23z-DS*u3Tz)*e*2*pj*r/(pj*R^2*ka*E0) @ w=57.904 (-muS*gNaS*u23z-DS*u3Tz)*e*2*pj*r/(pj*R^2*ka*E0) @ w=73.182 (-muS*gNaS*u23z-DS*u3Tz)*e*2*pj*r/(pj*R^2*ka*E0) @ w=92.491 (-muS*gNaS*u23z-DS*u3Tz)*e*2*pj*r/(pj*R^2*ka*E0) @ w=116.9 (-muS*gNaS*u23z-DS*u3Tz)*e*2*pj*r/(pj*R^2*ka*E0) @ w=147.74 (-muS*gNaS*u23z-DS*u3Tz)*e*2*pj*r/(pj*R^2*ka*E0) @ w=186.72 (-muS*gNaS*u23z-DS*u3Tz)*e*2*pj*r/(pj*R^2*ka*E0) @ w=235.98 (-muS*gNaS*u23z-DS*u3Tz)*e*2*pj*r/(pj*R^2*ka*E0) @ w=298.25 (-muS*gNaS*u23z-DS*u3Tz)*e*2*pj*r/(pj*R^2*ka*E0) @ w=376.94 (-muS*gNaS*u23z-DS*u3Tz)*e*2*pj*r/(pj*R^2*ka*E0) @ w=476.39 (-muS*gNaS*u23z-DS*u3Tz)*e*2*pj*r/(pj*R^2*ka*E0) @ w=602.09 (-muS*gNaS*u23z-DS*u3Tz)*e*2*pj*r/(pj*R^2*ka*E0) @ w=760.95 (-muS*gNaS*u23z-DS*u3Tz)*e*2*pj*r/(pj*R^2*ka*E0) @ w=961.72 (-muS*gNaS*u23z-DS*u3Tz)*e*2*pj*r/(pj*R^2*ka*E0) @ w=1215.5 (-muS*gNaS*u23z-DS*u3Tz)*e*2*pj*r/(pj*R^2*ka*E0) @ w=1536.2 (-muS*gNaS*u23z-DS*u3Tz)*e*2*pj*r/(pj*R^2*ka*E0) @ w=1941.5 (-muS*gNaS*u23z-DS*u3Tz)*e*2*pj*r/(pj*R^2*ka*E0) @ w=2453.8 (-muS*gNaS*u23z-DS*u3Tz)*e*2*pj*r/(pj*R^2*ka*E0) @ w=3101.2 (-muS*gNaS*u23z-DS*u3Tz)*e*2*pj*r/(pj*R^2*ka*E0) @ w=3919.4 (-muS*gNaS*u23z-DS*u3Tz)*e*2*pj*r/(pj*R^2*ka*E0) @ w=4953.5 (-muS*gNaS*u23z-DS*u3Tz)*e*2*pj*r/(pj*R^2*ka*E0) @ w=6260.5 (-muS*gNaS*u23z-DS*u3Tz)*e*2*pj*r/(pj*R^2*ka*E0) @ w=7912.3 (-muS*gNaS*u23z-DS*u3Tz)*e*2*pj*r/(pj*R^2*ka*E0) @ w=10000
0                         5.751325915760511E-4-1.633630603819074E-5j        5.748214977569777E-4-2.063447721066928E-5j        5.743253116888553E-4-2.605438727346611E-5j        5.73534599419989E-4-3.287952690120859E-5j         5.722762881841736E-4-4.1455647117806696E-5j       5.702782843778568E-4-5.2194795407660034E-5j       5.671168891879257E-4-6.556861928210325E-5j        5.621423950457549E-4-8.207783628675451E-5j        5.543830045080362E-4-1.0217437848309617E-4j       5.424430536236681E-4-1.2609904409811786E-4j       5.244495555264679E-4-1.5358894271539494E-4j       4.981700021950691E-4-1.8343361052130605E-4j       4.6149932272679405E-4-2.1297309132386718E-4j      4.134733763621179E-4-2.378786452008458E-4j        3.555935687795153E-4-2.527936682330094E-4j        2.925665485639917E-4-2.5314451649248416E-4j       2.3138109180423288E-4-2.3733479137188305E-4j      1.7886954193225418E-4-2.0764551569389078E-4j      1.3947471257866914E-4-1.6908942674756034E-4j      1.1465180019660669E-4-1.2737650711327212E-4j      1.0357925098638244E-4-8.7549460283605E-5j         1.03971600096437E-4-5.361644198565145E-5j         1.1238691461282538E-4-2.845949750102518E-5j       1.244187926804929E-4-1.3362207559862398E-5j       1.354994092246587E-4-7.366597446183965E-6j        1.4234371420139983E-4-7.337377905537766E-6j       1.441245413506229E-4-9.194508951120401E-6j        1.4244121707191745E-4-9.727166710317456E-6j       1.3999592135304005E-4-7.846311330692977E-6j       1.3884868980277044E-4-4.461937543945414E-6j       1.394793476159569E-4-1.1959360027496392E-6j       1.4116824857081695E-4+9.186168177850295E-7j       1.4299808881689522E-4+1.7824136567605914E-6j      1.4444330486806028E-4+1.7791061170736805E-6j      1.4533932798632113E-4+1.332627014308104E-6j       1.4571685820117795E-4+7.906296084196356E-7j       1.4574220528260247E-4+3.926160941472386E-7j       1.4563764302795993E-4+2.1398472085600513E-7j      1.4556201045501314E-4+1.8828211959246596E-7j      1.455577475188905E-4+2.091439818410614E-7j        1.4559218637256758E-4+2.1599064067193044E-7j      1.4562861322565414E-4+2.048053682436158E-7j       1.456571012230531E-4+1.898978736722957E-7j        1.4568152790883282E-4+1.7716827460655514E-7j      1.457040292214222E-4+1.6586455739198074E-7j       1.457242206252887E-4+1.5563364874303599E-7j       1.4574191422006016E-4+1.4708218580841293E-7j      1.4575731864024523E-4+1.4086442217420062E-7j      1.4577082271870055E-4+1.3761257338009573E-7j      1.4578299842387917E-4+1.3791122276429263E-7j      1.4579456024685271E-4+1.4221575495688607E-7j      1.458062628179216E-4+1.5078744713927087E-7j       1.4581872918694895E-4+1.637049174503543E-7j       1.458322877522614E-4+1.8098900254748484E-7j       1.4584689869183009E-4+2.028221775888486E-7j       1.4586217640334155E-4+2.2978893626487342E-7j      1.4587751306381375E-4+2.6306999553561744E-7j      1.4589221469291607E-4+3.0458571048479487E-7j      1.4590565264082934E-4+3.5709320092482434E-7j      1.4591737941610118E-4+4.2424857447254186E-7j
