% Model:              modelJ.mph
% Versjon:            COMSOL 6.0.0.405
% Date:               Aug 28 2023, 13:36
% Djmensjon:          1
% Nodes:              1
% Expressjons:        60
% Descrjptjon:        
% r                       (-muS*gNaS*u23z-DS*u3Tz)*e*2*pj*r/(pj*R^2*ka*E0) @ w=0.01 (-muS*gNaS*u23z-DS*u3Tz)*e*2*pj*r/(pj*R^2*ka*E0) @ w=0.012638 (-muS*gNaS*u23z-DS*u3Tz)*e*2*pj*r/(pj*R^2*ka*E0) @ w=0.015973 (-muS*gNaS*u23z-DS*u3Tz)*e*2*pj*r/(pj*R^2*ka*E0) @ w=0.020188 (-muS*gNaS*u23z-DS*u3Tz)*e*2*pj*r/(pj*R^2*ka*E0) @ w=0.025514 (-muS*gNaS*u23z-DS*u3Tz)*e*2*pj*r/(pj*R^2*ka*E0) @ w=0.032246 (-muS*gNaS*u23z-DS*u3Tz)*e*2*pj*r/(pj*R^2*ka*E0) @ w=0.040754 (-muS*gNaS*u23z-DS*u3Tz)*e*2*pj*r/(pj*R^2*ka*E0) @ w=0.051507 (-muS*gNaS*u23z-DS*u3Tz)*e*2*pj*r/(pj*R^2*ka*E0) @ w=0.065097 (-muS*gNaS*u23z-DS*u3Tz)*e*2*pj*r/(pj*R^2*ka*E0) @ w=0.082272 (-muS*gNaS*u23z-DS*u3Tz)*e*2*pj*r/(pj*R^2*ka*E0) @ w=0.10398 (-muS*gNaS*u23z-DS*u3Tz)*e*2*pj*r/(pj*R^2*ka*E0) @ w=0.13141 (-muS*gNaS*u23z-DS*u3Tz)*e*2*pj*r/(pj*R^2*ka*E0) @ w=0.16609 (-muS*gNaS*u23z-DS*u3Tz)*e*2*pj*r/(pj*R^2*ka*E0) @ w=0.20991 (-muS*gNaS*u23z-DS*u3Tz)*e*2*pj*r/(pj*R^2*ka*E0) @ w=0.26529 (-muS*gNaS*u23z-DS*u3Tz)*e*2*pj*r/(pj*R^2*ka*E0) @ w=0.33529 (-muS*gNaS*u23z-DS*u3Tz)*e*2*pj*r/(pj*R^2*ka*E0) @ w=0.42376 (-muS*gNaS*u23z-DS*u3Tz)*e*2*pj*r/(pj*R^2*ka*E0) @ w=0.53557 (-muS*gNaS*u23z-DS*u3Tz)*e*2*pj*r/(pj*R^2*ka*E0) @ w=0.67688 (-muS*gNaS*u23z-DS*u3Tz)*e*2*pj*r/(pj*R^2*ka*E0) @ w=0.85547 (-muS*gNaS*u23z-DS*u3Tz)*e*2*pj*r/(pj*R^2*ka*E0) @ w=1.0812 (-muS*gNaS*u23z-DS*u3Tz)*e*2*pj*r/(pj*R^2*ka*E0) @ w=1.3664 (-muS*gNaS*u23z-DS*u3Tz)*e*2*pj*r/(pj*R^2*ka*E0) @ w=1.727 (-muS*gNaS*u23z-DS*u3Tz)*e*2*pj*r/(pj*R^2*ka*E0) @ w=2.1826 (-muS*gNaS*u23z-DS*u3Tz)*e*2*pj*r/(pj*R^2*ka*E0) @ w=2.7585 (-muS*gNaS*u23z-DS*u3Tz)*e*2*pj*r/(pj*R^2*ka*E0) @ w=3.4864 (-muS*gNaS*u23z-DS*u3Tz)*e*2*pj*r/(pj*R^2*ka*E0) @ w=4.4062 (-muS*gNaS*u23z-DS*u3Tz)*e*2*pj*r/(pj*R^2*ka*E0) @ w=5.5688 (-muS*gNaS*u23z-DS*u3Tz)*e*2*pj*r/(pj*R^2*ka*E0) @ w=7.0381 (-muS*gNaS*u23z-DS*u3Tz)*e*2*pj*r/(pj*R^2*ka*E0) @ w=8.8951 (-muS*gNaS*u23z-DS*u3Tz)*e*2*pj*r/(pj*R^2*ka*E0) @ w=11.242 (-muS*gNaS*u23z-DS*u3Tz)*e*2*pj*r/(pj*R^2*ka*E0) @ w=14.208 (-muS*gNaS*u23z-DS*u3Tz)*e*2*pj*r/(pj*R^2*ka*E0) @ w=17.957 (-muS*gNaS*u23z-DS*u3Tz)*e*2*pj*r/(pj*R^2*ka*E0) @ w=22.695 (-muS*gNaS*u23z-DS*u3Tz)*e*2*pj*r/(pj*R^2*ka*E0) @ w=28.683 (-muS*gNaS*u23z-DS*u3Tz)*e*2*pj*r/(pj*R^2*ka*E0) @ w=36.251 (-muS*gNaS*u23z-DS*u3Tz)*e*2*pj*r/(pj*R^2*ka*E0) @ w=45.816 (-muS*gNaS*u23z-DS*u3Tz)*e*2*pj*r/(pj*R^2*ka*E0) @ w=57.904 (-muS*gNaS*u23z-DS*u3Tz)*e*2*pj*r/(pj*R^2*ka*E0) @ w=73.182 (-muS*gNaS*u23z-DS*u3Tz)*e*2*pj*r/(pj*R^2*ka*E0) @ w=92.491 (-muS*gNaS*u23z-DS*u3Tz)*e*2*pj*r/(pj*R^2*ka*E0) @ w=116.9 (-muS*gNaS*u23z-DS*u3Tz)*e*2*pj*r/(pj*R^2*ka*E0) @ w=147.74 (-muS*gNaS*u23z-DS*u3Tz)*e*2*pj*r/(pj*R^2*ka*E0) @ w=186.72 (-muS*gNaS*u23z-DS*u3Tz)*e*2*pj*r/(pj*R^2*ka*E0) @ w=235.98 (-muS*gNaS*u23z-DS*u3Tz)*e*2*pj*r/(pj*R^2*ka*E0) @ w=298.25 (-muS*gNaS*u23z-DS*u3Tz)*e*2*pj*r/(pj*R^2*ka*E0) @ w=376.94 (-muS*gNaS*u23z-DS*u3Tz)*e*2*pj*r/(pj*R^2*ka*E0) @ w=476.39 (-muS*gNaS*u23z-DS*u3Tz)*e*2*pj*r/(pj*R^2*ka*E0) @ w=602.09 (-muS*gNaS*u23z-DS*u3Tz)*e*2*pj*r/(pj*R^2*ka*E0) @ w=760.95 (-muS*gNaS*u23z-DS*u3Tz)*e*2*pj*r/(pj*R^2*ka*E0) @ w=961.72 (-muS*gNaS*u23z-DS*u3Tz)*e*2*pj*r/(pj*R^2*ka*E0) @ w=1215.5 (-muS*gNaS*u23z-DS*u3Tz)*e*2*pj*r/(pj*R^2*ka*E0) @ w=1536.2 (-muS*gNaS*u23z-DS*u3Tz)*e*2*pj*r/(pj*R^2*ka*E0) @ w=1941.5 (-muS*gNaS*u23z-DS*u3Tz)*e*2*pj*r/(pj*R^2*ka*E0) @ w=2453.8 (-muS*gNaS*u23z-DS*u3Tz)*e*2*pj*r/(pj*R^2*ka*E0) @ w=3101.2 (-muS*gNaS*u23z-DS*u3Tz)*e*2*pj*r/(pj*R^2*ka*E0) @ w=3919.4 (-muS*gNaS*u23z-DS*u3Tz)*e*2*pj*r/(pj*R^2*ka*E0) @ w=4953.5 (-muS*gNaS*u23z-DS*u3Tz)*e*2*pj*r/(pj*R^2*ka*E0) @ w=6260.5 (-muS*gNaS*u23z-DS*u3Tz)*e*2*pj*r/(pj*R^2*ka*E0) @ w=7912.3 (-muS*gNaS*u23z-DS*u3Tz)*e*2*pj*r/(pj*R^2*ka*E0) @ w=10000
0                         0.0030208928319767547-2.3408825431821578E-5j      0.0030207869798504726-2.9584233452798935E-5j      0.0030206179146304735-3.738802526864118E-5j       0.003020347899630214-4.724884235492147E-5j        0.0030199166902694827-5.97073997152447E-5j        0.0030192281410727656-7.544501609876775E-5j       0.003018128891478412-9.53186160152002E-5j         0.0030163745208170345-1.2040284388336465E-4j      0.0030135759982494173-1.5203903148053638E-4j      0.0030091154392758047-1.918885765318749E-4j       0.003002014810879709-2.4198350801733214E-4j       0.002990734414079295-3.047571737185902E-4j        0.0029728713927807903-3.8301877033301526E-4j      0.002944728082718882-4.798001548600901E-4j        0.002900741722439266-5.979444237894011E-4j        0.002832846779510762-7.39223630594409E-4j         0.002730042464594518-9.027058485766142E-4j        0.0025788249277741006-0.0010821809088120778j      0.0023656288734009135-0.0012630137985921973j      0.0020824127054970593-0.0014201519976565695j      0.0017347549810559856-0.0015206343359791328j      0.0013478987158160993-0.0015332511752858948j      9.638721742220388E-4-0.001442336543246967j        6.282461845873704E-4-0.0012561953202544413j       3.750708230077422E-4-0.0010034093194158811j       2.199512154957803E-4-7.213388084813493E-4j        1.6192767359348912E-4-4.4632442361547067E-4j      1.8768974257340508E-4-2.0934823387243052E-4j      2.7379704651152217E-4-3.3771264052283096E-5j      3.887720048817338E-4+6.87195423111843E-5j         4.992272172898249E-4+1.0255911214184074E-4j       5.797865497727382E-4+8.77989623134171E-5j         6.210327017255917E-4+5.2209820197964384E-5j       6.300170710514051E-4+1.9758479399621982E-5j       6.228598995804788E-4+2.0862133310223627E-6j       6.141373675360601E-4-2.1357076709938515E-6j       6.101541441588258E-4-4.5607565308220947E-7j       6.099230694277458E-4+1.2629024589184916E-6j       6.105841061157023E-4+1.6413624934397468E-6j       6.109401843074725E-4+1.5252263502298893E-6j       6.111324670409013E-4+1.465320670277818E-6j        6.113416204801868E-4+1.4449784638258138E-6j       6.115558811238991E-4+1.4154025019181485E-6j       6.117642381108662E-4+1.3846514335304573E-6j       6.119697309162095E-4+1.3530745653945816E-6j       6.121707657353876E-4+1.3193273500692948E-6j       6.123665111831822E-4+1.283703241849595E-6j        6.125562819799681E-4+1.2454142233845517E-6j       6.127377092475482E-4+1.2034009847240054E-6j       6.129065583796289E-4+1.158079822186812E-6j        6.130578412836223E-4+1.1126768813458315E-6j       6.131874176597024E-4+1.0734354088908907E-6j       6.132931502951346E-4+1.0489213700611366E-6j       6.133753670514573E-4+1.0490629258895196E-6j       6.134367887441444E-4+1.0842237465734594E-6j       6.134818830605779E-4+1.1644677090301238E-6j       6.135157311351357E-4+1.2993789876366424E-6j       6.135427578230484E-4+1.4987400870889088E-6j       6.135658762597437E-4+1.7740098628839656E-6j       6.13586352997126E-4+2.1402218798253524E-6j
