% Model:              modelJ.mph
% Versjon:            COMSOL 6.0.0.405
% Date:               Aug 22 2023, 12:04
% Djmensjon:          1
% Nodes:              1
% Expressjons:        60
% Descrjptjon:        
% r                       (-muS*gNaS*u23z-DS*u3Tz)*e*2*pj*r/(pj*R^2*ka*E0) @ w=0.01 (-muS*gNaS*u23z-DS*u3Tz)*e*2*pj*r/(pj*R^2*ka*E0) @ w=0.012638 (-muS*gNaS*u23z-DS*u3Tz)*e*2*pj*r/(pj*R^2*ka*E0) @ w=0.015973 (-muS*gNaS*u23z-DS*u3Tz)*e*2*pj*r/(pj*R^2*ka*E0) @ w=0.020188 (-muS*gNaS*u23z-DS*u3Tz)*e*2*pj*r/(pj*R^2*ka*E0) @ w=0.025514 (-muS*gNaS*u23z-DS*u3Tz)*e*2*pj*r/(pj*R^2*ka*E0) @ w=0.032246 (-muS*gNaS*u23z-DS*u3Tz)*e*2*pj*r/(pj*R^2*ka*E0) @ w=0.040754 (-muS*gNaS*u23z-DS*u3Tz)*e*2*pj*r/(pj*R^2*ka*E0) @ w=0.051507 (-muS*gNaS*u23z-DS*u3Tz)*e*2*pj*r/(pj*R^2*ka*E0) @ w=0.065097 (-muS*gNaS*u23z-DS*u3Tz)*e*2*pj*r/(pj*R^2*ka*E0) @ w=0.082272 (-muS*gNaS*u23z-DS*u3Tz)*e*2*pj*r/(pj*R^2*ka*E0) @ w=0.10398 (-muS*gNaS*u23z-DS*u3Tz)*e*2*pj*r/(pj*R^2*ka*E0) @ w=0.13141 (-muS*gNaS*u23z-DS*u3Tz)*e*2*pj*r/(pj*R^2*ka*E0) @ w=0.16609 (-muS*gNaS*u23z-DS*u3Tz)*e*2*pj*r/(pj*R^2*ka*E0) @ w=0.20991 (-muS*gNaS*u23z-DS*u3Tz)*e*2*pj*r/(pj*R^2*ka*E0) @ w=0.26529 (-muS*gNaS*u23z-DS*u3Tz)*e*2*pj*r/(pj*R^2*ka*E0) @ w=0.33529 (-muS*gNaS*u23z-DS*u3Tz)*e*2*pj*r/(pj*R^2*ka*E0) @ w=0.42376 (-muS*gNaS*u23z-DS*u3Tz)*e*2*pj*r/(pj*R^2*ka*E0) @ w=0.53557 (-muS*gNaS*u23z-DS*u3Tz)*e*2*pj*r/(pj*R^2*ka*E0) @ w=0.67688 (-muS*gNaS*u23z-DS*u3Tz)*e*2*pj*r/(pj*R^2*ka*E0) @ w=0.85547 (-muS*gNaS*u23z-DS*u3Tz)*e*2*pj*r/(pj*R^2*ka*E0) @ w=1.0812 (-muS*gNaS*u23z-DS*u3Tz)*e*2*pj*r/(pj*R^2*ka*E0) @ w=1.3664 (-muS*gNaS*u23z-DS*u3Tz)*e*2*pj*r/(pj*R^2*ka*E0) @ w=1.727 (-muS*gNaS*u23z-DS*u3Tz)*e*2*pj*r/(pj*R^2*ka*E0) @ w=2.1826 (-muS*gNaS*u23z-DS*u3Tz)*e*2*pj*r/(pj*R^2*ka*E0) @ w=2.7585 (-muS*gNaS*u23z-DS*u3Tz)*e*2*pj*r/(pj*R^2*ka*E0) @ w=3.4864 (-muS*gNaS*u23z-DS*u3Tz)*e*2*pj*r/(pj*R^2*ka*E0) @ w=4.4062 (-muS*gNaS*u23z-DS*u3Tz)*e*2*pj*r/(pj*R^2*ka*E0) @ w=5.5688 (-muS*gNaS*u23z-DS*u3Tz)*e*2*pj*r/(pj*R^2*ka*E0) @ w=7.0381 (-muS*gNaS*u23z-DS*u3Tz)*e*2*pj*r/(pj*R^2*ka*E0) @ w=8.8951 (-muS*gNaS*u23z-DS*u3Tz)*e*2*pj*r/(pj*R^2*ka*E0) @ w=11.242 (-muS*gNaS*u23z-DS*u3Tz)*e*2*pj*r/(pj*R^2*ka*E0) @ w=14.208 (-muS*gNaS*u23z-DS*u3Tz)*e*2*pj*r/(pj*R^2*ka*E0) @ w=17.957 (-muS*gNaS*u23z-DS*u3Tz)*e*2*pj*r/(pj*R^2*ka*E0) @ w=22.695 (-muS*gNaS*u23z-DS*u3Tz)*e*2*pj*r/(pj*R^2*ka*E0) @ w=28.683 (-muS*gNaS*u23z-DS*u3Tz)*e*2*pj*r/(pj*R^2*ka*E0) @ w=36.251 (-muS*gNaS*u23z-DS*u3Tz)*e*2*pj*r/(pj*R^2*ka*E0) @ w=45.816 (-muS*gNaS*u23z-DS*u3Tz)*e*2*pj*r/(pj*R^2*ka*E0) @ w=57.904 (-muS*gNaS*u23z-DS*u3Tz)*e*2*pj*r/(pj*R^2*ka*E0) @ w=73.182 (-muS*gNaS*u23z-DS*u3Tz)*e*2*pj*r/(pj*R^2*ka*E0) @ w=92.491 (-muS*gNaS*u23z-DS*u3Tz)*e*2*pj*r/(pj*R^2*ka*E0) @ w=116.9 (-muS*gNaS*u23z-DS*u3Tz)*e*2*pj*r/(pj*R^2*ka*E0) @ w=147.74 (-muS*gNaS*u23z-DS*u3Tz)*e*2*pj*r/(pj*R^2*ka*E0) @ w=186.72 (-muS*gNaS*u23z-DS*u3Tz)*e*2*pj*r/(pj*R^2*ka*E0) @ w=235.98 (-muS*gNaS*u23z-DS*u3Tz)*e*2*pj*r/(pj*R^2*ka*E0) @ w=298.25 (-muS*gNaS*u23z-DS*u3Tz)*e*2*pj*r/(pj*R^2*ka*E0) @ w=376.94 (-muS*gNaS*u23z-DS*u3Tz)*e*2*pj*r/(pj*R^2*ka*E0) @ w=476.39 (-muS*gNaS*u23z-DS*u3Tz)*e*2*pj*r/(pj*R^2*ka*E0) @ w=602.09 (-muS*gNaS*u23z-DS*u3Tz)*e*2*pj*r/(pj*R^2*ka*E0) @ w=760.95 (-muS*gNaS*u23z-DS*u3Tz)*e*2*pj*r/(pj*R^2*ka*E0) @ w=961.72 (-muS*gNaS*u23z-DS*u3Tz)*e*2*pj*r/(pj*R^2*ka*E0) @ w=1215.5 (-muS*gNaS*u23z-DS*u3Tz)*e*2*pj*r/(pj*R^2*ka*E0) @ w=1536.2 (-muS*gNaS*u23z-DS*u3Tz)*e*2*pj*r/(pj*R^2*ka*E0) @ w=1941.5 (-muS*gNaS*u23z-DS*u3Tz)*e*2*pj*r/(pj*R^2*ka*E0) @ w=2453.8 (-muS*gNaS*u23z-DS*u3Tz)*e*2*pj*r/(pj*R^2*ka*E0) @ w=3101.2 (-muS*gNaS*u23z-DS*u3Tz)*e*2*pj*r/(pj*R^2*ka*E0) @ w=3919.4 (-muS*gNaS*u23z-DS*u3Tz)*e*2*pj*r/(pj*R^2*ka*E0) @ w=4953.5 (-muS*gNaS*u23z-DS*u3Tz)*e*2*pj*r/(pj*R^2*ka*E0) @ w=6260.5 (-muS*gNaS*u23z-DS*u3Tz)*e*2*pj*r/(pj*R^2*ka*E0) @ w=7912.3 (-muS*gNaS*u23z-DS*u3Tz)*e*2*pj*r/(pj*R^2*ka*E0) @ w=10000
0                         5.753258348829437E-4-9.469018166621521E-6j        5.751300729825982E-4-1.195881691383871E-5j        5.74817961101037E-4-1.5096830568104933E-5j        5.743208978593545E-4-1.904528345951077E-5j        5.73530678711818E-4-2.4000388165865723E-5j        5.722779212703926E-4-3.019267248091285E-5j        5.703006810622483E-4-3.7879331165856105E-5j       5.672017349239093E-4-4.731980540881904E-5j        5.623975957352101E-4-5.871967112894306E-5j        5.550749500982102E-4-7.21215622704285E-5j         5.441966530768995E-4-8.722348065535487E-5j        5.286384283386994E-4-1.0313567361705863E-4j       5.075562459797057E-4-1.1817758782413944E-4j       4.8099199323113525E-4-1.2995472174241296E-4j      4.5044123735803513E-4-1.359802839350995E-4j       4.188254731017641E-4-1.347516752481283E-4j        3.895654784531691E-4-1.2659114455090107E-4j       3.6528631079686485E-4-1.1353031317337718E-4j      3.4707467171074476E-4-9.836925676224793E-5j       3.3457444874434824E-4-8.37025736764868E-5j        3.2647527118522115E-4-7.140681556821385E-5j       3.2095113011881084E-4-6.247242256837224E-5j       3.160269726097508E-4-5.6906673534931143E-5j       3.1005211717081743E-4-5.3714577271902495E-5j      3.022363784073651E-4-5.118569410852837E-5j        2.929347345006701E-4-4.752438437592942E-5j        2.834733379289041E-4-4.15475223309432E-5j         2.7557902872479053E-4-3.3139456727256346E-5j      2.7063094089215553E-4-2.324930306599566E-5j       2.6910820776240347E-4-1.3381646845381651E-5j      2.70572886166934E-4-4.8983212810249584E-6j        2.7408264634401914E-4+1.3782314176326192E-6j      2.7857571005084156E-4+5.151728789449213E-6j       2.830248663513929E-4+6.553151801101955E-6j        2.8657493216485875E-4+6.131487163938131E-6j       2.887765391627322E-4+4.746543093337934E-6j        2.8971093713674515E-4+3.2613403085611586E-6j      2.898502801647091E-4+2.220601352840734E-6j        2.8974273252160284E-4+1.7280140251722894E-6j      2.897297161282087E-4+1.5776799446295638E-6j       2.8987008134588143E-4+1.5167915315001775E-6j      2.9007201010459777E-4+1.425232340726408E-6j       2.9025842005567606E-4+1.3082512783431617E-6j      2.9041678330884806E-4+1.198265253277379E-6j       2.9055896545841824E-4+1.1043939088315618E-6j      2.906904558481774E-4+1.0234601520119257E-6j       2.908121956195114E-4+9.539108035519614E-7j        2.9092566061788216E-4+8.955057556531965E-7j       2.9103261469446E-4+8.47768714918079E-7j           2.9113468931819147E-4+8.101636031176864E-7j       2.9123360673149405E-4+7.82187938675466E-7j        2.913313235763729E-4+7.631486221114345E-7j        2.9142987158913025E-4+7.517575788163713E-7j       2.9153086318240535E-4+7.458791729251747E-7j       2.91634763336545E-4+7.427726564382019E-7j         2.917404533507823E-4+7.398278538784558E-7j        2.918453324384459E-4+7.355015959874472E-7j        2.9194591542761717E-4+7.300349458606862E-7j       2.9203870626503403E-4+7.257195326793041E-7j       2.9212103217290264E-4+7.266897310473938E-7j
