% Model:              modelJ.mph
% Versjon:            COMSOL 6.0.0.405
% Date:               Aug 21 2023, 11:07
% Djmensjon:          1
% Nodes:              1
% Expressjons:        60
% Descrjptjon:        
% r                       (-muS*gNaS*u23z-DS*u3Tz)*e*2*pj*r/(pj*R^2*ka*E0) @ w=0.01 (-muS*gNaS*u23z-DS*u3Tz)*e*2*pj*r/(pj*R^2*ka*E0) @ w=0.012638 (-muS*gNaS*u23z-DS*u3Tz)*e*2*pj*r/(pj*R^2*ka*E0) @ w=0.015973 (-muS*gNaS*u23z-DS*u3Tz)*e*2*pj*r/(pj*R^2*ka*E0) @ w=0.020188 (-muS*gNaS*u23z-DS*u3Tz)*e*2*pj*r/(pj*R^2*ka*E0) @ w=0.025514 (-muS*gNaS*u23z-DS*u3Tz)*e*2*pj*r/(pj*R^2*ka*E0) @ w=0.032246 (-muS*gNaS*u23z-DS*u3Tz)*e*2*pj*r/(pj*R^2*ka*E0) @ w=0.040754 (-muS*gNaS*u23z-DS*u3Tz)*e*2*pj*r/(pj*R^2*ka*E0) @ w=0.051507 (-muS*gNaS*u23z-DS*u3Tz)*e*2*pj*r/(pj*R^2*ka*E0) @ w=0.065097 (-muS*gNaS*u23z-DS*u3Tz)*e*2*pj*r/(pj*R^2*ka*E0) @ w=0.082272 (-muS*gNaS*u23z-DS*u3Tz)*e*2*pj*r/(pj*R^2*ka*E0) @ w=0.10398 (-muS*gNaS*u23z-DS*u3Tz)*e*2*pj*r/(pj*R^2*ka*E0) @ w=0.13141 (-muS*gNaS*u23z-DS*u3Tz)*e*2*pj*r/(pj*R^2*ka*E0) @ w=0.16609 (-muS*gNaS*u23z-DS*u3Tz)*e*2*pj*r/(pj*R^2*ka*E0) @ w=0.20991 (-muS*gNaS*u23z-DS*u3Tz)*e*2*pj*r/(pj*R^2*ka*E0) @ w=0.26529 (-muS*gNaS*u23z-DS*u3Tz)*e*2*pj*r/(pj*R^2*ka*E0) @ w=0.33529 (-muS*gNaS*u23z-DS*u3Tz)*e*2*pj*r/(pj*R^2*ka*E0) @ w=0.42376 (-muS*gNaS*u23z-DS*u3Tz)*e*2*pj*r/(pj*R^2*ka*E0) @ w=0.53557 (-muS*gNaS*u23z-DS*u3Tz)*e*2*pj*r/(pj*R^2*ka*E0) @ w=0.67688 (-muS*gNaS*u23z-DS*u3Tz)*e*2*pj*r/(pj*R^2*ka*E0) @ w=0.85547 (-muS*gNaS*u23z-DS*u3Tz)*e*2*pj*r/(pj*R^2*ka*E0) @ w=1.0812 (-muS*gNaS*u23z-DS*u3Tz)*e*2*pj*r/(pj*R^2*ka*E0) @ w=1.3664 (-muS*gNaS*u23z-DS*u3Tz)*e*2*pj*r/(pj*R^2*ka*E0) @ w=1.727 (-muS*gNaS*u23z-DS*u3Tz)*e*2*pj*r/(pj*R^2*ka*E0) @ w=2.1826 (-muS*gNaS*u23z-DS*u3Tz)*e*2*pj*r/(pj*R^2*ka*E0) @ w=2.7585 (-muS*gNaS*u23z-DS*u3Tz)*e*2*pj*r/(pj*R^2*ka*E0) @ w=3.4864 (-muS*gNaS*u23z-DS*u3Tz)*e*2*pj*r/(pj*R^2*ka*E0) @ w=4.4062 (-muS*gNaS*u23z-DS*u3Tz)*e*2*pj*r/(pj*R^2*ka*E0) @ w=5.5688 (-muS*gNaS*u23z-DS*u3Tz)*e*2*pj*r/(pj*R^2*ka*E0) @ w=7.0381 (-muS*gNaS*u23z-DS*u3Tz)*e*2*pj*r/(pj*R^2*ka*E0) @ w=8.8951 (-muS*gNaS*u23z-DS*u3Tz)*e*2*pj*r/(pj*R^2*ka*E0) @ w=11.242 (-muS*gNaS*u23z-DS*u3Tz)*e*2*pj*r/(pj*R^2*ka*E0) @ w=14.208 (-muS*gNaS*u23z-DS*u3Tz)*e*2*pj*r/(pj*R^2*ka*E0) @ w=17.957 (-muS*gNaS*u23z-DS*u3Tz)*e*2*pj*r/(pj*R^2*ka*E0) @ w=22.695 (-muS*gNaS*u23z-DS*u3Tz)*e*2*pj*r/(pj*R^2*ka*E0) @ w=28.683 (-muS*gNaS*u23z-DS*u3Tz)*e*2*pj*r/(pj*R^2*ka*E0) @ w=36.251 (-muS*gNaS*u23z-DS*u3Tz)*e*2*pj*r/(pj*R^2*ka*E0) @ w=45.816 (-muS*gNaS*u23z-DS*u3Tz)*e*2*pj*r/(pj*R^2*ka*E0) @ w=57.904 (-muS*gNaS*u23z-DS*u3Tz)*e*2*pj*r/(pj*R^2*ka*E0) @ w=73.182 (-muS*gNaS*u23z-DS*u3Tz)*e*2*pj*r/(pj*R^2*ka*E0) @ w=92.491 (-muS*gNaS*u23z-DS*u3Tz)*e*2*pj*r/(pj*R^2*ka*E0) @ w=116.9 (-muS*gNaS*u23z-DS*u3Tz)*e*2*pj*r/(pj*R^2*ka*E0) @ w=147.74 (-muS*gNaS*u23z-DS*u3Tz)*e*2*pj*r/(pj*R^2*ka*E0) @ w=186.72 (-muS*gNaS*u23z-DS*u3Tz)*e*2*pj*r/(pj*R^2*ka*E0) @ w=235.98 (-muS*gNaS*u23z-DS*u3Tz)*e*2*pj*r/(pj*R^2*ka*E0) @ w=298.25 (-muS*gNaS*u23z-DS*u3Tz)*e*2*pj*r/(pj*R^2*ka*E0) @ w=376.94 (-muS*gNaS*u23z-DS*u3Tz)*e*2*pj*r/(pj*R^2*ka*E0) @ w=476.39 (-muS*gNaS*u23z-DS*u3Tz)*e*2*pj*r/(pj*R^2*ka*E0) @ w=602.09 (-muS*gNaS*u23z-DS*u3Tz)*e*2*pj*r/(pj*R^2*ka*E0) @ w=760.95 (-muS*gNaS*u23z-DS*u3Tz)*e*2*pj*r/(pj*R^2*ka*E0) @ w=961.72 (-muS*gNaS*u23z-DS*u3Tz)*e*2*pj*r/(pj*R^2*ka*E0) @ w=1215.5 (-muS*gNaS*u23z-DS*u3Tz)*e*2*pj*r/(pj*R^2*ka*E0) @ w=1536.2 (-muS*gNaS*u23z-DS*u3Tz)*e*2*pj*r/(pj*R^2*ka*E0) @ w=1941.5 (-muS*gNaS*u23z-DS*u3Tz)*e*2*pj*r/(pj*R^2*ka*E0) @ w=2453.8 (-muS*gNaS*u23z-DS*u3Tz)*e*2*pj*r/(pj*R^2*ka*E0) @ w=3101.2 (-muS*gNaS*u23z-DS*u3Tz)*e*2*pj*r/(pj*R^2*ka*E0) @ w=3919.4 (-muS*gNaS*u23z-DS*u3Tz)*e*2*pj*r/(pj*R^2*ka*E0) @ w=4953.5 (-muS*gNaS*u23z-DS*u3Tz)*e*2*pj*r/(pj*R^2*ka*E0) @ w=6260.5 (-muS*gNaS*u23z-DS*u3Tz)*e*2*pj*r/(pj*R^2*ka*E0) @ w=7912.3 (-muS*gNaS*u23z-DS*u3Tz)*e*2*pj*r/(pj*R^2*ka*E0) @ w=10000
0                         3.309304997365464E-4-1.0269595507611026E-5j       3.307383904748773E-4-1.297191639914531E-5j        3.304319572064866E-4-1.6379829749839486E-5j       3.299435695245634E-4-2.0672000600131494E-5j       3.2916621042600067E-4-2.6066688278235794E-5j      3.279314895769221E-4-3.282472265065755E-5j        3.2597682937327417E-4-4.124612532724495E-5j       3.2289868993086386E-4-5.16524228387433E-5j        3.1809129503346603E-4-6.434023283628293E-5j       3.1067948688494123E-4-7.948286547877081E-5j       2.994770668493833E-4-9.695002763256453E-5j        2.8304482985489686E-4-1.1602752719246937E-4j      2.5997386044276634E-4-1.350843142754779E-4j       2.2950981916598342E-4-1.5138682965554128E-4j      1.9242266602227624E-4-1.6143044581820273E-4j      1.5158783470474134E-4-1.6204495293098135E-4j      1.1154063614965432E-4-1.5186620967794781E-4j      7.695552585069343E-5-1.320967053006714E-4j        5.109101732852422E-5-1.0592044745512794E-4j       3.523331899200756E-5-7.720034680227878E-5j        2.905426672528421E-5-4.951165276712622E-5j        3.11079606742714E-5-2.5815340493307055E-5j        3.902824281874555E-5-8.324245034492537E-6j        4.967542600274543E-5+1.879559456049359E-6j        5.972111255008167E-5+5.325198872774517E-6j        6.667566438262303E-5+4.127863205711239E-6j        6.972858737663787E-5+1.1572448379572019E-6j       6.977916675213396E-5-1.1958446552451666E-6j       6.860251255465767E-5-1.908051266432201E-6j        6.769292116639008E-5-1.3310574758919215E-6j       6.75750424944616E-5-4.0460038092659323E-7j        6.797381430464136E-5+2.1277078266244673E-7j       6.84478678306213E-5+4.189636387180219E-7j         6.878691900095307E-5+3.878115245114061E-7j        6.8975007596486E-5+2.7069105946702186E-7j         6.904502880632648E-5+1.46898540006793E-7j         6.904058434395308E-5+6.203578533033458E-8j        6.90122796414848E-5+2.8187803248015748E-8j        6.899412780054231E-5+2.6917457148139616E-8j       6.899269604457737E-5+3.3603308958021036E-8j       6.89991049702686E-5+3.606900516050243E-8j         6.900539549995572E-5+3.466625371815192E-8j        6.900999739080753E-5+3.276219329997278E-8j        6.901392700418129E-5+3.1435559615536625E-8j       6.901755976725813E-5+3.047135961950469E-8j        6.902076916448132E-5+2.986015299558538E-8j        6.902350242088846E-5+2.9797187949156516E-8j       6.902578408893881E-5+3.049997569328201E-8j        6.902767912412055E-5+3.220679846643469E-8j        6.902929363884434E-5+3.51704432485017E-8j         6.903076224090243E-5+3.964632104228207E-8j        6.903222029109572E-5+4.589368777642239E-8j        6.903377141426377E-5+5.419861537919971E-8j        6.903546748071441E-5+6.491801285592783E-8j        6.903730397176533E-5+7.85357128175519E-8j         6.903923057888255E-5+9.571841538309236E-8j        6.904116729459255E-5+1.1737158618355725E-7j       6.904302271196176E-5+1.4469942226328933E-7j       6.904471467784011E-5+1.7927261770803368E-7j       6.904618836026E-5+2.2310362594300353E-7j
