% Model:              modelJ.mph
% Versjon:            COMSOL 6.0.0.405
% Date:               Aug 22 2023, 16:09
% Djmensjon:          1
% Nodes:              1
% Expressjons:        60
% Descrjptjon:        
% r                       (-muS*gNaS*u23z-DS*u3Tz)*e*2*pj*r/(pj*R^2*ka*E0) @ w=0.01 (-muS*gNaS*u23z-DS*u3Tz)*e*2*pj*r/(pj*R^2*ka*E0) @ w=0.012638 (-muS*gNaS*u23z-DS*u3Tz)*e*2*pj*r/(pj*R^2*ka*E0) @ w=0.015973 (-muS*gNaS*u23z-DS*u3Tz)*e*2*pj*r/(pj*R^2*ka*E0) @ w=0.020188 (-muS*gNaS*u23z-DS*u3Tz)*e*2*pj*r/(pj*R^2*ka*E0) @ w=0.025514 (-muS*gNaS*u23z-DS*u3Tz)*e*2*pj*r/(pj*R^2*ka*E0) @ w=0.032246 (-muS*gNaS*u23z-DS*u3Tz)*e*2*pj*r/(pj*R^2*ka*E0) @ w=0.040754 (-muS*gNaS*u23z-DS*u3Tz)*e*2*pj*r/(pj*R^2*ka*E0) @ w=0.051507 (-muS*gNaS*u23z-DS*u3Tz)*e*2*pj*r/(pj*R^2*ka*E0) @ w=0.065097 (-muS*gNaS*u23z-DS*u3Tz)*e*2*pj*r/(pj*R^2*ka*E0) @ w=0.082272 (-muS*gNaS*u23z-DS*u3Tz)*e*2*pj*r/(pj*R^2*ka*E0) @ w=0.10398 (-muS*gNaS*u23z-DS*u3Tz)*e*2*pj*r/(pj*R^2*ka*E0) @ w=0.13141 (-muS*gNaS*u23z-DS*u3Tz)*e*2*pj*r/(pj*R^2*ka*E0) @ w=0.16609 (-muS*gNaS*u23z-DS*u3Tz)*e*2*pj*r/(pj*R^2*ka*E0) @ w=0.20991 (-muS*gNaS*u23z-DS*u3Tz)*e*2*pj*r/(pj*R^2*ka*E0) @ w=0.26529 (-muS*gNaS*u23z-DS*u3Tz)*e*2*pj*r/(pj*R^2*ka*E0) @ w=0.33529 (-muS*gNaS*u23z-DS*u3Tz)*e*2*pj*r/(pj*R^2*ka*E0) @ w=0.42376 (-muS*gNaS*u23z-DS*u3Tz)*e*2*pj*r/(pj*R^2*ka*E0) @ w=0.53557 (-muS*gNaS*u23z-DS*u3Tz)*e*2*pj*r/(pj*R^2*ka*E0) @ w=0.67688 (-muS*gNaS*u23z-DS*u3Tz)*e*2*pj*r/(pj*R^2*ka*E0) @ w=0.85547 (-muS*gNaS*u23z-DS*u3Tz)*e*2*pj*r/(pj*R^2*ka*E0) @ w=1.0812 (-muS*gNaS*u23z-DS*u3Tz)*e*2*pj*r/(pj*R^2*ka*E0) @ w=1.3664 (-muS*gNaS*u23z-DS*u3Tz)*e*2*pj*r/(pj*R^2*ka*E0) @ w=1.727 (-muS*gNaS*u23z-DS*u3Tz)*e*2*pj*r/(pj*R^2*ka*E0) @ w=2.1826 (-muS*gNaS*u23z-DS*u3Tz)*e*2*pj*r/(pj*R^2*ka*E0) @ w=2.7585 (-muS*gNaS*u23z-DS*u3Tz)*e*2*pj*r/(pj*R^2*ka*E0) @ w=3.4864 (-muS*gNaS*u23z-DS*u3Tz)*e*2*pj*r/(pj*R^2*ka*E0) @ w=4.4062 (-muS*gNaS*u23z-DS*u3Tz)*e*2*pj*r/(pj*R^2*ka*E0) @ w=5.5688 (-muS*gNaS*u23z-DS*u3Tz)*e*2*pj*r/(pj*R^2*ka*E0) @ w=7.0381 (-muS*gNaS*u23z-DS*u3Tz)*e*2*pj*r/(pj*R^2*ka*E0) @ w=8.8951 (-muS*gNaS*u23z-DS*u3Tz)*e*2*pj*r/(pj*R^2*ka*E0) @ w=11.242 (-muS*gNaS*u23z-DS*u3Tz)*e*2*pj*r/(pj*R^2*ka*E0) @ w=14.208 (-muS*gNaS*u23z-DS*u3Tz)*e*2*pj*r/(pj*R^2*ka*E0) @ w=17.957 (-muS*gNaS*u23z-DS*u3Tz)*e*2*pj*r/(pj*R^2*ka*E0) @ w=22.695 (-muS*gNaS*u23z-DS*u3Tz)*e*2*pj*r/(pj*R^2*ka*E0) @ w=28.683 (-muS*gNaS*u23z-DS*u3Tz)*e*2*pj*r/(pj*R^2*ka*E0) @ w=36.251 (-muS*gNaS*u23z-DS*u3Tz)*e*2*pj*r/(pj*R^2*ka*E0) @ w=45.816 (-muS*gNaS*u23z-DS*u3Tz)*e*2*pj*r/(pj*R^2*ka*E0) @ w=57.904 (-muS*gNaS*u23z-DS*u3Tz)*e*2*pj*r/(pj*R^2*ka*E0) @ w=73.182 (-muS*gNaS*u23z-DS*u3Tz)*e*2*pj*r/(pj*R^2*ka*E0) @ w=92.491 (-muS*gNaS*u23z-DS*u3Tz)*e*2*pj*r/(pj*R^2*ka*E0) @ w=116.9 (-muS*gNaS*u23z-DS*u3Tz)*e*2*pj*r/(pj*R^2*ka*E0) @ w=147.74 (-muS*gNaS*u23z-DS*u3Tz)*e*2*pj*r/(pj*R^2*ka*E0) @ w=186.72 (-muS*gNaS*u23z-DS*u3Tz)*e*2*pj*r/(pj*R^2*ka*E0) @ w=235.98 (-muS*gNaS*u23z-DS*u3Tz)*e*2*pj*r/(pj*R^2*ka*E0) @ w=298.25 (-muS*gNaS*u23z-DS*u3Tz)*e*2*pj*r/(pj*R^2*ka*E0) @ w=376.94 (-muS*gNaS*u23z-DS*u3Tz)*e*2*pj*r/(pj*R^2*ka*E0) @ w=476.39 (-muS*gNaS*u23z-DS*u3Tz)*e*2*pj*r/(pj*R^2*ka*E0) @ w=602.09 (-muS*gNaS*u23z-DS*u3Tz)*e*2*pj*r/(pj*R^2*ka*E0) @ w=760.95 (-muS*gNaS*u23z-DS*u3Tz)*e*2*pj*r/(pj*R^2*ka*E0) @ w=961.72 (-muS*gNaS*u23z-DS*u3Tz)*e*2*pj*r/(pj*R^2*ka*E0) @ w=1215.5 (-muS*gNaS*u23z-DS*u3Tz)*e*2*pj*r/(pj*R^2*ka*E0) @ w=1536.2 (-muS*gNaS*u23z-DS*u3Tz)*e*2*pj*r/(pj*R^2*ka*E0) @ w=1941.5 (-muS*gNaS*u23z-DS*u3Tz)*e*2*pj*r/(pj*R^2*ka*E0) @ w=2453.8 (-muS*gNaS*u23z-DS*u3Tz)*e*2*pj*r/(pj*R^2*ka*E0) @ w=3101.2 (-muS*gNaS*u23z-DS*u3Tz)*e*2*pj*r/(pj*R^2*ka*E0) @ w=3919.4 (-muS*gNaS*u23z-DS*u3Tz)*e*2*pj*r/(pj*R^2*ka*E0) @ w=4953.5 (-muS*gNaS*u23z-DS*u3Tz)*e*2*pj*r/(pj*R^2*ka*E0) @ w=6260.5 (-muS*gNaS*u23z-DS*u3Tz)*e*2*pj*r/(pj*R^2*ka*E0) @ w=7912.3 (-muS*gNaS*u23z-DS*u3Tz)*e*2*pj*r/(pj*R^2*ka*E0) @ w=10000
0                         8.314975103952625E-4-2.0893033959110285E-5j       8.311550647558277E-4-2.639413750151672E-5j        8.306086653064772E-4-3.3335020960784024E-5j       8.297374047806888E-4-4.2083727485940944E-5j       8.283495694260188E-4-5.309346824872438E-5j        8.261425067095632E-4-6.69131994988466E-5j         8.226417845783392E-4-8.41894613048863E-5j         8.171120618455192E-4-1.0564668566226627E-4j       8.084341998808253E-4-1.3202173274439694E-4j       7.949545931940207E-4-1.6391078587218427E-4j       7.74345848205407E-4-2.0146665481107797E-4j        7.435903764748312E-4-2.4388247006247878E-4j       6.993134081043247E-4-2.886704741994859E-4j        6.387728210828295E-4-3.3098424058167257E-4j       5.616129140982041E-4-3.6364458853442995E-4j       4.7172036401553653E-4-3.787173978879731E-4j       3.77575727717786E-4-3.7063635985834444E-4j        2.899117841105058E-4-3.3904379002988935E-4j       2.1787474889577697E-4-2.889994243999444E-4j       1.665010272723228E-4-2.2851040379183335E-4j       1.3675171310007295E-4-1.657179768684983E-4j       1.2682142570180844E-4-1.0756375634103165E-4j      1.3298647450301474E-4-5.965611296375119E-5j       1.4966773693536936E-4-2.5966464291111195E-5j      1.698238158095285E-4-7.705878482011407E-6j        1.8669021143308736E-4-2.3624793976202284E-6j      1.9621291428707302E-4-4.401261498727227E-6j       1.98381755185652E-4-7.721879470176707E-6j         1.9639634176241594E-4-8.382944002452878E-6j       1.9418752765395922E-4-5.843598520664848E-6j       1.9401166488929944E-4-2.0017928975936473E-6j      1.957717362937184E-4+1.0028997063240178E-6j       1.9815615633241262E-4+2.3221968146943973E-6j      2.0009650780020247E-4+2.3242940812720098E-6j      2.0125207846726284E-4+1.714508763080811E-6j       2.0171803335213698E-4+1.0138756401654364E-6j      2.0174297792798743E-4+5.131318061253385E-7j       2.0161053007432058E-4+2.9432763825035946E-7j      2.0152015258537447E-4+2.6848201525229727E-7j      2.0152250090327213E-4+2.984598255836344E-7j       2.015735205476537E-4+3.084070400046942E-7j        2.0162646684941134E-4+2.9482545629760305E-7j      2.0166947448117714E-4+2.761324601638689E-7j       2.01707569093395E-4+2.5931996244644295E-7j        2.0174301757358438E-4+2.431631507984404E-7j       2.0177484329474553E-4+2.2728598515659478E-7j      2.018023979744373E-4+2.127202744733128E-7j        2.0182565867635279E-4+2.0071279732007092E-7j      2.018450121649374E-4+1.9257845346006337E-7j       2.01861292712782E-4+1.895715941676309E-7j         2.018756901109427E-4+1.9268167110004574E-7j       2.018895297014333E-4+2.024915478677605E-7j        2.0190394542444722E-4+2.191971978119802E-7j       2.0191960071008538E-4+2.4283559082982305E-7j      2.0193655839942552E-4+2.736604679314333E-7j       2.0195435837668056E-4+3.1252807273106096E-7j      2.0197222607838369E-4+3.6118280581517585E-7j      2.019893045153043E-4+4.22431962349722E-7j         2.020048505951984E-4+5.002483802311595E-7j        2.0201836611047095E-4+5.998468919348129E-7j
