% Model:              modelJ.mph
% Versjon:            COMSOL 6.0.0.405
% Date:               Aug 23 2023, 14:09
% Djmensjon:          1
% Nodes:              1
% Expressjons:        60
% Descrjptjon:        
% r                       (-muS*gNaS*u23z-DS*u3Tz)*e*2*pj*r/(pj*R^2*ka*E0) @ w=0.01 (-muS*gNaS*u23z-DS*u3Tz)*e*2*pj*r/(pj*R^2*ka*E0) @ w=0.012638 (-muS*gNaS*u23z-DS*u3Tz)*e*2*pj*r/(pj*R^2*ka*E0) @ w=0.015973 (-muS*gNaS*u23z-DS*u3Tz)*e*2*pj*r/(pj*R^2*ka*E0) @ w=0.020188 (-muS*gNaS*u23z-DS*u3Tz)*e*2*pj*r/(pj*R^2*ka*E0) @ w=0.025514 (-muS*gNaS*u23z-DS*u3Tz)*e*2*pj*r/(pj*R^2*ka*E0) @ w=0.032246 (-muS*gNaS*u23z-DS*u3Tz)*e*2*pj*r/(pj*R^2*ka*E0) @ w=0.040754 (-muS*gNaS*u23z-DS*u3Tz)*e*2*pj*r/(pj*R^2*ka*E0) @ w=0.051507 (-muS*gNaS*u23z-DS*u3Tz)*e*2*pj*r/(pj*R^2*ka*E0) @ w=0.065097 (-muS*gNaS*u23z-DS*u3Tz)*e*2*pj*r/(pj*R^2*ka*E0) @ w=0.082272 (-muS*gNaS*u23z-DS*u3Tz)*e*2*pj*r/(pj*R^2*ka*E0) @ w=0.10398 (-muS*gNaS*u23z-DS*u3Tz)*e*2*pj*r/(pj*R^2*ka*E0) @ w=0.13141 (-muS*gNaS*u23z-DS*u3Tz)*e*2*pj*r/(pj*R^2*ka*E0) @ w=0.16609 (-muS*gNaS*u23z-DS*u3Tz)*e*2*pj*r/(pj*R^2*ka*E0) @ w=0.20991 (-muS*gNaS*u23z-DS*u3Tz)*e*2*pj*r/(pj*R^2*ka*E0) @ w=0.26529 (-muS*gNaS*u23z-DS*u3Tz)*e*2*pj*r/(pj*R^2*ka*E0) @ w=0.33529 (-muS*gNaS*u23z-DS*u3Tz)*e*2*pj*r/(pj*R^2*ka*E0) @ w=0.42376 (-muS*gNaS*u23z-DS*u3Tz)*e*2*pj*r/(pj*R^2*ka*E0) @ w=0.53557 (-muS*gNaS*u23z-DS*u3Tz)*e*2*pj*r/(pj*R^2*ka*E0) @ w=0.67688 (-muS*gNaS*u23z-DS*u3Tz)*e*2*pj*r/(pj*R^2*ka*E0) @ w=0.85547 (-muS*gNaS*u23z-DS*u3Tz)*e*2*pj*r/(pj*R^2*ka*E0) @ w=1.0812 (-muS*gNaS*u23z-DS*u3Tz)*e*2*pj*r/(pj*R^2*ka*E0) @ w=1.3664 (-muS*gNaS*u23z-DS*u3Tz)*e*2*pj*r/(pj*R^2*ka*E0) @ w=1.727 (-muS*gNaS*u23z-DS*u3Tz)*e*2*pj*r/(pj*R^2*ka*E0) @ w=2.1826 (-muS*gNaS*u23z-DS*u3Tz)*e*2*pj*r/(pj*R^2*ka*E0) @ w=2.7585 (-muS*gNaS*u23z-DS*u3Tz)*e*2*pj*r/(pj*R^2*ka*E0) @ w=3.4864 (-muS*gNaS*u23z-DS*u3Tz)*e*2*pj*r/(pj*R^2*ka*E0) @ w=4.4062 (-muS*gNaS*u23z-DS*u3Tz)*e*2*pj*r/(pj*R^2*ka*E0) @ w=5.5688 (-muS*gNaS*u23z-DS*u3Tz)*e*2*pj*r/(pj*R^2*ka*E0) @ w=7.0381 (-muS*gNaS*u23z-DS*u3Tz)*e*2*pj*r/(pj*R^2*ka*E0) @ w=8.8951 (-muS*gNaS*u23z-DS*u3Tz)*e*2*pj*r/(pj*R^2*ka*E0) @ w=11.242 (-muS*gNaS*u23z-DS*u3Tz)*e*2*pj*r/(pj*R^2*ka*E0) @ w=14.208 (-muS*gNaS*u23z-DS*u3Tz)*e*2*pj*r/(pj*R^2*ka*E0) @ w=17.957 (-muS*gNaS*u23z-DS*u3Tz)*e*2*pj*r/(pj*R^2*ka*E0) @ w=22.695 (-muS*gNaS*u23z-DS*u3Tz)*e*2*pj*r/(pj*R^2*ka*E0) @ w=28.683 (-muS*gNaS*u23z-DS*u3Tz)*e*2*pj*r/(pj*R^2*ka*E0) @ w=36.251 (-muS*gNaS*u23z-DS*u3Tz)*e*2*pj*r/(pj*R^2*ka*E0) @ w=45.816 (-muS*gNaS*u23z-DS*u3Tz)*e*2*pj*r/(pj*R^2*ka*E0) @ w=57.904 (-muS*gNaS*u23z-DS*u3Tz)*e*2*pj*r/(pj*R^2*ka*E0) @ w=73.182 (-muS*gNaS*u23z-DS*u3Tz)*e*2*pj*r/(pj*R^2*ka*E0) @ w=92.491 (-muS*gNaS*u23z-DS*u3Tz)*e*2*pj*r/(pj*R^2*ka*E0) @ w=116.9 (-muS*gNaS*u23z-DS*u3Tz)*e*2*pj*r/(pj*R^2*ka*E0) @ w=147.74 (-muS*gNaS*u23z-DS*u3Tz)*e*2*pj*r/(pj*R^2*ka*E0) @ w=186.72 (-muS*gNaS*u23z-DS*u3Tz)*e*2*pj*r/(pj*R^2*ka*E0) @ w=235.98 (-muS*gNaS*u23z-DS*u3Tz)*e*2*pj*r/(pj*R^2*ka*E0) @ w=298.25 (-muS*gNaS*u23z-DS*u3Tz)*e*2*pj*r/(pj*R^2*ka*E0) @ w=376.94 (-muS*gNaS*u23z-DS*u3Tz)*e*2*pj*r/(pj*R^2*ka*E0) @ w=476.39 (-muS*gNaS*u23z-DS*u3Tz)*e*2*pj*r/(pj*R^2*ka*E0) @ w=602.09 (-muS*gNaS*u23z-DS*u3Tz)*e*2*pj*r/(pj*R^2*ka*E0) @ w=760.95 (-muS*gNaS*u23z-DS*u3Tz)*e*2*pj*r/(pj*R^2*ka*E0) @ w=961.72 (-muS*gNaS*u23z-DS*u3Tz)*e*2*pj*r/(pj*R^2*ka*E0) @ w=1215.5 (-muS*gNaS*u23z-DS*u3Tz)*e*2*pj*r/(pj*R^2*ka*E0) @ w=1536.2 (-muS*gNaS*u23z-DS*u3Tz)*e*2*pj*r/(pj*R^2*ka*E0) @ w=1941.5 (-muS*gNaS*u23z-DS*u3Tz)*e*2*pj*r/(pj*R^2*ka*E0) @ w=2453.8 (-muS*gNaS*u23z-DS*u3Tz)*e*2*pj*r/(pj*R^2*ka*E0) @ w=3101.2 (-muS*gNaS*u23z-DS*u3Tz)*e*2*pj*r/(pj*R^2*ka*E0) @ w=3919.4 (-muS*gNaS*u23z-DS*u3Tz)*e*2*pj*r/(pj*R^2*ka*E0) @ w=4953.5 (-muS*gNaS*u23z-DS*u3Tz)*e*2*pj*r/(pj*R^2*ka*E0) @ w=6260.5 (-muS*gNaS*u23z-DS*u3Tz)*e*2*pj*r/(pj*R^2*ka*E0) @ w=7912.3 (-muS*gNaS*u23z-DS*u3Tz)*e*2*pj*r/(pj*R^2*ka*E0) @ w=10000
0                         0.001445736208568673-1.8825821538360846E-5j       0.001445594186074548-2.3790815482333622E-5j       0.0014453673826389053-3.0063609278085134E-5j      0.0014450052362456026-3.798701946761725E-5j       0.00144442710572522-4.799203273300834E-5j         0.0014435044925816556-6.061875586877349E-5j       0.0014420329353289421-7.654055998408025E-5j       0.0014396878536074987-9.658993661803731E-5j       0.0014359558798303137-1.2178193769271038E-4j      0.0014300298436552797-1.5332567756985363E-4j      0.0014206526166183641-1.9260394242398974E-4j      0.0014058959564475025-2.4108204177677938E-4j      0.0013828744030821923-3.000761358549733E-4j       0.001347440915854477-3.7027035163478023E-4j       0.001294023388181978-4.508455884628186E-4j        0.0012159661140227673-5.38153370132225E-4j        0.0011069667188553585-6.242036367774062E-4j       9.640907551414535E-4-6.959686208328018E-4j        7.917573606077213E-4-7.372240658456421E-4j        6.040664939233888E-4-7.338967343838897E-4j        4.222399647942333E-4-6.806688505047022E-4j        2.6750163720913904E-4-5.839047740518013E-4j       1.5437301250862412E-4-4.5860977327427763E-4j      8.854865113223574E-5-3.2270665287923003E-4j       6.840896025581274E-5-1.930391826244057E-4j        8.681155748375627E-5-8.385789530473891E-5j        1.3179836366978767E-4-5.6615299234614E-6j         1.877276027420517E-4+3.707337212417296E-5j        2.3871732461022653E-4+4.7955608795513145E-5j      2.736593790648516E-4+3.7824036111527575E-5j       2.896497067383841E-4+2.0299932600012518E-5j       2.914360706067718E-4+6.105918579252124E-6j        2.8720034127955864E-4-5.207261075394306E-7j       2.83407689449113E-4-1.3029536070080693E-6j        2.821706984656221E-4-1.4351414179861335E-7j       2.8242948339583996E-4+5.193976533716422E-7j       2.827703993704443E-4+4.841537891126975E-7j        2.82828681493145E-4+3.3789596153926224E-7j        2.828164444957422E-4+3.0858125296489935E-7j       2.8284756604658794E-4+3.206841285446247E-7j       2.828987418703701E-4+3.2132398857243787E-7j       2.8294815797078466E-4+3.137617675093561E-7j       2.8299390008140166E-4+3.052566851579374E-7j       2.83037751539019E-4+2.9746016021139043E-7j        2.8308033270281615E-4+2.900181721191825E-7j       2.8312143827086865E-4+2.826615769285803E-7j       2.8316058293560654E-4+2.7529086502247564E-7j      2.831968805730091E-4+2.6811692243891913E-7j       2.832292486849858E-4+2.620318940509698E-7j        2.8325681873096346E-4+2.586723575088229E-7j       2.832792087654294E-4+2.602339732701317E-7j        2.832966030203072E-4+2.692377751846055E-7j        2.8330969167398163E-4+2.883427703489878E-7j       2.8331950620953287E-4+3.2023183597761863E-7j      2.833271604744506E-4+3.6762877580047797E-7j       2.8333357764313296E-4+4.3350771574649976E-7j      2.8333930752139807E-4+5.214913579678568E-7j       2.8334451898846564E-4+6.363508342241007E-7j       2.833491596919101E-4+7.844871736062997E-7j        2.833531684911546E-4+9.743285629961048E-7j
