% Model:              modelJ.mph
% Versjon:            COMSOL 6.0.0.405
% Date:               Aug 22 2023, 15:04
% Djmensjon:          1
% Nodes:              1
% Expressjons:        60
% Descrjptjon:        
% r                       (-muS*gNaS*u23z-DS*u3Tz)*e*2*pj*r/(pj*R^2*ka*E0) @ w=0.01 (-muS*gNaS*u23z-DS*u3Tz)*e*2*pj*r/(pj*R^2*ka*E0) @ w=0.012638 (-muS*gNaS*u23z-DS*u3Tz)*e*2*pj*r/(pj*R^2*ka*E0) @ w=0.015973 (-muS*gNaS*u23z-DS*u3Tz)*e*2*pj*r/(pj*R^2*ka*E0) @ w=0.020188 (-muS*gNaS*u23z-DS*u3Tz)*e*2*pj*r/(pj*R^2*ka*E0) @ w=0.025514 (-muS*gNaS*u23z-DS*u3Tz)*e*2*pj*r/(pj*R^2*ka*E0) @ w=0.032246 (-muS*gNaS*u23z-DS*u3Tz)*e*2*pj*r/(pj*R^2*ka*E0) @ w=0.040754 (-muS*gNaS*u23z-DS*u3Tz)*e*2*pj*r/(pj*R^2*ka*E0) @ w=0.051507 (-muS*gNaS*u23z-DS*u3Tz)*e*2*pj*r/(pj*R^2*ka*E0) @ w=0.065097 (-muS*gNaS*u23z-DS*u3Tz)*e*2*pj*r/(pj*R^2*ka*E0) @ w=0.082272 (-muS*gNaS*u23z-DS*u3Tz)*e*2*pj*r/(pj*R^2*ka*E0) @ w=0.10398 (-muS*gNaS*u23z-DS*u3Tz)*e*2*pj*r/(pj*R^2*ka*E0) @ w=0.13141 (-muS*gNaS*u23z-DS*u3Tz)*e*2*pj*r/(pj*R^2*ka*E0) @ w=0.16609 (-muS*gNaS*u23z-DS*u3Tz)*e*2*pj*r/(pj*R^2*ka*E0) @ w=0.20991 (-muS*gNaS*u23z-DS*u3Tz)*e*2*pj*r/(pj*R^2*ka*E0) @ w=0.26529 (-muS*gNaS*u23z-DS*u3Tz)*e*2*pj*r/(pj*R^2*ka*E0) @ w=0.33529 (-muS*gNaS*u23z-DS*u3Tz)*e*2*pj*r/(pj*R^2*ka*E0) @ w=0.42376 (-muS*gNaS*u23z-DS*u3Tz)*e*2*pj*r/(pj*R^2*ka*E0) @ w=0.53557 (-muS*gNaS*u23z-DS*u3Tz)*e*2*pj*r/(pj*R^2*ka*E0) @ w=0.67688 (-muS*gNaS*u23z-DS*u3Tz)*e*2*pj*r/(pj*R^2*ka*E0) @ w=0.85547 (-muS*gNaS*u23z-DS*u3Tz)*e*2*pj*r/(pj*R^2*ka*E0) @ w=1.0812 (-muS*gNaS*u23z-DS*u3Tz)*e*2*pj*r/(pj*R^2*ka*E0) @ w=1.3664 (-muS*gNaS*u23z-DS*u3Tz)*e*2*pj*r/(pj*R^2*ka*E0) @ w=1.727 (-muS*gNaS*u23z-DS*u3Tz)*e*2*pj*r/(pj*R^2*ka*E0) @ w=2.1826 (-muS*gNaS*u23z-DS*u3Tz)*e*2*pj*r/(pj*R^2*ka*E0) @ w=2.7585 (-muS*gNaS*u23z-DS*u3Tz)*e*2*pj*r/(pj*R^2*ka*E0) @ w=3.4864 (-muS*gNaS*u23z-DS*u3Tz)*e*2*pj*r/(pj*R^2*ka*E0) @ w=4.4062 (-muS*gNaS*u23z-DS*u3Tz)*e*2*pj*r/(pj*R^2*ka*E0) @ w=5.5688 (-muS*gNaS*u23z-DS*u3Tz)*e*2*pj*r/(pj*R^2*ka*E0) @ w=7.0381 (-muS*gNaS*u23z-DS*u3Tz)*e*2*pj*r/(pj*R^2*ka*E0) @ w=8.8951 (-muS*gNaS*u23z-DS*u3Tz)*e*2*pj*r/(pj*R^2*ka*E0) @ w=11.242 (-muS*gNaS*u23z-DS*u3Tz)*e*2*pj*r/(pj*R^2*ka*E0) @ w=14.208 (-muS*gNaS*u23z-DS*u3Tz)*e*2*pj*r/(pj*R^2*ka*E0) @ w=17.957 (-muS*gNaS*u23z-DS*u3Tz)*e*2*pj*r/(pj*R^2*ka*E0) @ w=22.695 (-muS*gNaS*u23z-DS*u3Tz)*e*2*pj*r/(pj*R^2*ka*E0) @ w=28.683 (-muS*gNaS*u23z-DS*u3Tz)*e*2*pj*r/(pj*R^2*ka*E0) @ w=36.251 (-muS*gNaS*u23z-DS*u3Tz)*e*2*pj*r/(pj*R^2*ka*E0) @ w=45.816 (-muS*gNaS*u23z-DS*u3Tz)*e*2*pj*r/(pj*R^2*ka*E0) @ w=57.904 (-muS*gNaS*u23z-DS*u3Tz)*e*2*pj*r/(pj*R^2*ka*E0) @ w=73.182 (-muS*gNaS*u23z-DS*u3Tz)*e*2*pj*r/(pj*R^2*ka*E0) @ w=92.491 (-muS*gNaS*u23z-DS*u3Tz)*e*2*pj*r/(pj*R^2*ka*E0) @ w=116.9 (-muS*gNaS*u23z-DS*u3Tz)*e*2*pj*r/(pj*R^2*ka*E0) @ w=147.74 (-muS*gNaS*u23z-DS*u3Tz)*e*2*pj*r/(pj*R^2*ka*E0) @ w=186.72 (-muS*gNaS*u23z-DS*u3Tz)*e*2*pj*r/(pj*R^2*ka*E0) @ w=235.98 (-muS*gNaS*u23z-DS*u3Tz)*e*2*pj*r/(pj*R^2*ka*E0) @ w=298.25 (-muS*gNaS*u23z-DS*u3Tz)*e*2*pj*r/(pj*R^2*ka*E0) @ w=376.94 (-muS*gNaS*u23z-DS*u3Tz)*e*2*pj*r/(pj*R^2*ka*E0) @ w=476.39 (-muS*gNaS*u23z-DS*u3Tz)*e*2*pj*r/(pj*R^2*ka*E0) @ w=602.09 (-muS*gNaS*u23z-DS*u3Tz)*e*2*pj*r/(pj*R^2*ka*E0) @ w=760.95 (-muS*gNaS*u23z-DS*u3Tz)*e*2*pj*r/(pj*R^2*ka*E0) @ w=961.72 (-muS*gNaS*u23z-DS*u3Tz)*e*2*pj*r/(pj*R^2*ka*E0) @ w=1215.5 (-muS*gNaS*u23z-DS*u3Tz)*e*2*pj*r/(pj*R^2*ka*E0) @ w=1536.2 (-muS*gNaS*u23z-DS*u3Tz)*e*2*pj*r/(pj*R^2*ka*E0) @ w=1941.5 (-muS*gNaS*u23z-DS*u3Tz)*e*2*pj*r/(pj*R^2*ka*E0) @ w=2453.8 (-muS*gNaS*u23z-DS*u3Tz)*e*2*pj*r/(pj*R^2*ka*E0) @ w=3101.2 (-muS*gNaS*u23z-DS*u3Tz)*e*2*pj*r/(pj*R^2*ka*E0) @ w=3919.4 (-muS*gNaS*u23z-DS*u3Tz)*e*2*pj*r/(pj*R^2*ka*E0) @ w=4953.5 (-muS*gNaS*u23z-DS*u3Tz)*e*2*pj*r/(pj*R^2*ka*E0) @ w=6260.5 (-muS*gNaS*u23z-DS*u3Tz)*e*2*pj*r/(pj*R^2*ka*E0) @ w=7912.3 (-muS*gNaS*u23z-DS*u3Tz)*e*2*pj*r/(pj*R^2*ka*E0) @ w=10000
0                         0.001000047874861396-1.8093615022723583E-5j       9.998553481404217E-4-2.2863432449174805E-5j       9.995479605641583E-4-2.888753310409773E-5j        9.99057317604095E-4-3.649256186034126E-5j         9.982745018967585E-4-4.6086990495849774E-5j       9.970263774048487E-4-5.8178308696062836E-5j       9.950385207597202E-4-7.339035919838561E-5j        9.9187797632307E-4-9.247657708515409E-5j          9.868667243899492E-4-1.1631984139274781E-4j       9.789555518494085E-4-1.4590014747476062E-4j       9.665517474253596E-4-1.8219480784737764E-4j       9.473118786031448E-4-2.2595098854568893E-4j       9.179607494281403E-4-2.7724361144641394E-4j       8.74303477581368E-4-3.347348384955918E-4j         8.117579728552054E-4-3.946685711625424E-4j        7.268258883944388E-4-4.499904457698861E-4j        6.19578965597958E-4-4.905536312280257E-4j         4.961100298746693E-4-5.055321602906181E-4j        3.6869075668106966E-4-4.878077077683341E-4j       2.5226140789631047E-4-4.3762323009852015E-4j      1.5924571439617966E-4-3.624943005944947E-4j       9.644138777457293E-5-2.7377900646437996E-4j       6.517384328243697E-5-1.8315676568194116E-4j       6.271449726036834E-5-1.0101635382980333E-4j       8.298710532089693E-5-3.59134090245885E-5j         1.1678275717756467E-4+6.5766068638422284E-6j      1.5310480910329715E-4+2.5706502999841524E-5j      1.822737146808848E-4+2.633514873076358E-5j        1.992094003958376E-4+1.7119130962482276E-5j       2.0462424598144185E-4+6.7581052732901246E-6j      2.033003096503506E-4+5.003206620215869E-7j        2.0056702395708373E-4-1.0348501332291176E-6j      1.99337773549277E-4-1.8414793546402126E-7j        1.996330693678831E-4+6.670701680871468E-7j        2.0027210638821476E-4+7.44677120357182E-7j        2.0056559422593217E-4+4.530215850417121E-7j       2.0057034893274588E-4+2.346425889922028E-7j       2.0051560471027568E-4+1.6417586058305152E-7j      2.004944784200274E-4+1.64713201590678E-7j         2.005093030456206E-4+1.7799516298296893E-7j       2.0053958522133424E-4+1.8158998857878945E-7j      2.0056917820380314E-4+1.7685644542620398E-7j      2.0059504348980578E-4+1.7086609921033046E-7j      2.0061942639087093E-4+1.6568848248139712E-7j      2.006430443482566E-4+1.6058347233611095E-7j       2.0066532231757746E-4+1.552323928859668E-7j       2.0068557792006546E-4+1.4993510356176763E-7j      2.0070320855890405E-4+1.4539188905216813E-7j      2.00717821077616E-4+1.4268356128675978E-7j        2.0072936710953827E-4+1.4314656871656107E-7j      2.0073815780075714E-4+1.4821947073754816E-7j      2.0074479675634245E-4+1.5931642086398264E-7j      2.0075003356820572E-4+1.777623406645853E-7j       2.0075457134800315E-4+2.0483884222294612E-7j      2.0075889914403756E-4+2.4195843718086035E-7j      2.007632127026824E-4+2.9093488797343553E-7j       2.0076745225808843E-4+3.542843201029549E-7j       2.007714293291403E-4+4.354905432204748E-7j        2.0077497326235054E-4+5.392038242236002E-7j       2.0077801794013964E-4+6.714165803251002E-7j
