% Model:              modelJ.mph
% Versjon:            COMSOL 6.0.0.405
% Date:               Aug 23 2023, 11:47
% Djmensjon:          1
% Nodes:              1
% Expressjons:        60
% Descrjptjon:        
% r                       (-muS*gNaS*u23z-DS*u3Tz)*e*2*pj*r/(pj*R^2*ka*E0) @ w=0.01 (-muS*gNaS*u23z-DS*u3Tz)*e*2*pj*r/(pj*R^2*ka*E0) @ w=0.012638 (-muS*gNaS*u23z-DS*u3Tz)*e*2*pj*r/(pj*R^2*ka*E0) @ w=0.015973 (-muS*gNaS*u23z-DS*u3Tz)*e*2*pj*r/(pj*R^2*ka*E0) @ w=0.020188 (-muS*gNaS*u23z-DS*u3Tz)*e*2*pj*r/(pj*R^2*ka*E0) @ w=0.025514 (-muS*gNaS*u23z-DS*u3Tz)*e*2*pj*r/(pj*R^2*ka*E0) @ w=0.032246 (-muS*gNaS*u23z-DS*u3Tz)*e*2*pj*r/(pj*R^2*ka*E0) @ w=0.040754 (-muS*gNaS*u23z-DS*u3Tz)*e*2*pj*r/(pj*R^2*ka*E0) @ w=0.051507 (-muS*gNaS*u23z-DS*u3Tz)*e*2*pj*r/(pj*R^2*ka*E0) @ w=0.065097 (-muS*gNaS*u23z-DS*u3Tz)*e*2*pj*r/(pj*R^2*ka*E0) @ w=0.082272 (-muS*gNaS*u23z-DS*u3Tz)*e*2*pj*r/(pj*R^2*ka*E0) @ w=0.10398 (-muS*gNaS*u23z-DS*u3Tz)*e*2*pj*r/(pj*R^2*ka*E0) @ w=0.13141 (-muS*gNaS*u23z-DS*u3Tz)*e*2*pj*r/(pj*R^2*ka*E0) @ w=0.16609 (-muS*gNaS*u23z-DS*u3Tz)*e*2*pj*r/(pj*R^2*ka*E0) @ w=0.20991 (-muS*gNaS*u23z-DS*u3Tz)*e*2*pj*r/(pj*R^2*ka*E0) @ w=0.26529 (-muS*gNaS*u23z-DS*u3Tz)*e*2*pj*r/(pj*R^2*ka*E0) @ w=0.33529 (-muS*gNaS*u23z-DS*u3Tz)*e*2*pj*r/(pj*R^2*ka*E0) @ w=0.42376 (-muS*gNaS*u23z-DS*u3Tz)*e*2*pj*r/(pj*R^2*ka*E0) @ w=0.53557 (-muS*gNaS*u23z-DS*u3Tz)*e*2*pj*r/(pj*R^2*ka*E0) @ w=0.67688 (-muS*gNaS*u23z-DS*u3Tz)*e*2*pj*r/(pj*R^2*ka*E0) @ w=0.85547 (-muS*gNaS*u23z-DS*u3Tz)*e*2*pj*r/(pj*R^2*ka*E0) @ w=1.0812 (-muS*gNaS*u23z-DS*u3Tz)*e*2*pj*r/(pj*R^2*ka*E0) @ w=1.3664 (-muS*gNaS*u23z-DS*u3Tz)*e*2*pj*r/(pj*R^2*ka*E0) @ w=1.727 (-muS*gNaS*u23z-DS*u3Tz)*e*2*pj*r/(pj*R^2*ka*E0) @ w=2.1826 (-muS*gNaS*u23z-DS*u3Tz)*e*2*pj*r/(pj*R^2*ka*E0) @ w=2.7585 (-muS*gNaS*u23z-DS*u3Tz)*e*2*pj*r/(pj*R^2*ka*E0) @ w=3.4864 (-muS*gNaS*u23z-DS*u3Tz)*e*2*pj*r/(pj*R^2*ka*E0) @ w=4.4062 (-muS*gNaS*u23z-DS*u3Tz)*e*2*pj*r/(pj*R^2*ka*E0) @ w=5.5688 (-muS*gNaS*u23z-DS*u3Tz)*e*2*pj*r/(pj*R^2*ka*E0) @ w=7.0381 (-muS*gNaS*u23z-DS*u3Tz)*e*2*pj*r/(pj*R^2*ka*E0) @ w=8.8951 (-muS*gNaS*u23z-DS*u3Tz)*e*2*pj*r/(pj*R^2*ka*E0) @ w=11.242 (-muS*gNaS*u23z-DS*u3Tz)*e*2*pj*r/(pj*R^2*ka*E0) @ w=14.208 (-muS*gNaS*u23z-DS*u3Tz)*e*2*pj*r/(pj*R^2*ka*E0) @ w=17.957 (-muS*gNaS*u23z-DS*u3Tz)*e*2*pj*r/(pj*R^2*ka*E0) @ w=22.695 (-muS*gNaS*u23z-DS*u3Tz)*e*2*pj*r/(pj*R^2*ka*E0) @ w=28.683 (-muS*gNaS*u23z-DS*u3Tz)*e*2*pj*r/(pj*R^2*ka*E0) @ w=36.251 (-muS*gNaS*u23z-DS*u3Tz)*e*2*pj*r/(pj*R^2*ka*E0) @ w=45.816 (-muS*gNaS*u23z-DS*u3Tz)*e*2*pj*r/(pj*R^2*ka*E0) @ w=57.904 (-muS*gNaS*u23z-DS*u3Tz)*e*2*pj*r/(pj*R^2*ka*E0) @ w=73.182 (-muS*gNaS*u23z-DS*u3Tz)*e*2*pj*r/(pj*R^2*ka*E0) @ w=92.491 (-muS*gNaS*u23z-DS*u3Tz)*e*2*pj*r/(pj*R^2*ka*E0) @ w=116.9 (-muS*gNaS*u23z-DS*u3Tz)*e*2*pj*r/(pj*R^2*ka*E0) @ w=147.74 (-muS*gNaS*u23z-DS*u3Tz)*e*2*pj*r/(pj*R^2*ka*E0) @ w=186.72 (-muS*gNaS*u23z-DS*u3Tz)*e*2*pj*r/(pj*R^2*ka*E0) @ w=235.98 (-muS*gNaS*u23z-DS*u3Tz)*e*2*pj*r/(pj*R^2*ka*E0) @ w=298.25 (-muS*gNaS*u23z-DS*u3Tz)*e*2*pj*r/(pj*R^2*ka*E0) @ w=376.94 (-muS*gNaS*u23z-DS*u3Tz)*e*2*pj*r/(pj*R^2*ka*E0) @ w=476.39 (-muS*gNaS*u23z-DS*u3Tz)*e*2*pj*r/(pj*R^2*ka*E0) @ w=602.09 (-muS*gNaS*u23z-DS*u3Tz)*e*2*pj*r/(pj*R^2*ka*E0) @ w=760.95 (-muS*gNaS*u23z-DS*u3Tz)*e*2*pj*r/(pj*R^2*ka*E0) @ w=961.72 (-muS*gNaS*u23z-DS*u3Tz)*e*2*pj*r/(pj*R^2*ka*E0) @ w=1215.5 (-muS*gNaS*u23z-DS*u3Tz)*e*2*pj*r/(pj*R^2*ka*E0) @ w=1536.2 (-muS*gNaS*u23z-DS*u3Tz)*e*2*pj*r/(pj*R^2*ka*E0) @ w=1941.5 (-muS*gNaS*u23z-DS*u3Tz)*e*2*pj*r/(pj*R^2*ka*E0) @ w=2453.8 (-muS*gNaS*u23z-DS*u3Tz)*e*2*pj*r/(pj*R^2*ka*E0) @ w=3101.2 (-muS*gNaS*u23z-DS*u3Tz)*e*2*pj*r/(pj*R^2*ka*E0) @ w=3919.4 (-muS*gNaS*u23z-DS*u3Tz)*e*2*pj*r/(pj*R^2*ka*E0) @ w=4953.5 (-muS*gNaS*u23z-DS*u3Tz)*e*2*pj*r/(pj*R^2*ka*E0) @ w=6260.5 (-muS*gNaS*u23z-DS*u3Tz)*e*2*pj*r/(pj*R^2*ka*E0) @ w=7912.3 (-muS*gNaS*u23z-DS*u3Tz)*e*2*pj*r/(pj*R^2*ka*E0) @ w=10000
0                         0.0012022086618556276-2.4034099412838727E-5j      0.0012019092013024308-3.036783664768143E-5j       0.0012014311679424785-3.836496901211513E-5j       0.0012006683603419878-4.845650608564726E-5j       0.0011994518562258667-6.117920350885722E-5j       0.0011975136481019984-7.719544327885233E-5j       0.001194430236988495-9.731041659902225E-5j        0.0011895367380404017-1.2247830309373116E-4j      0.0011818000817527278-1.5378027426579937E-4j      0.001169641748514191-1.9234133080650072E-4j       0.0011507142201220748-2.39127873716243E-4j        0.0011216778175994172-2.94536918020309E-4j        0.0010781219194681698-3.576754650789177E-4j       0.001014940176460158-4.2530892447734104E-4j       9.27619840365502E-4-4.907657612671708E-4j         8.147166687333454E-4-5.436811431158331E-4j        6.807842196273006E-4-5.718892337844485E-4j        5.37516733527524E-4-5.658328129241723E-4j         4.0095827291839473E-4-5.232066918053973E-4j       2.858769188101956E-4-4.501239293348957E-4j        2.0144382039057914E-4-3.579762119589384E-4j       1.5070203250680997E-4-2.592025136426813E-4j       1.3223993747169994E-4-1.6508749553426292E-4j      1.412595656471222E-4-8.541518903254555E-5j        1.694335302940272E-4-2.7761892102828693E-5j       2.0542068014728156E-4+4.625028722377434E-6j       2.3770179398343238E-4+1.469480715776931E-5j       2.5866326992343794E-4+1.0749811899086735E-5j      2.6706078026716003E-4+2.6875649773086633E-6j      2.6711553175170154E-4-2.4049795204975574E-6j      2.648790990272722E-4-2.5970621255667733E-6j       2.643434356375575E-4-7.834290195230116E-8j        2.659698569528115E-4+2.1008532383089884E-6j       2.681750350260347E-4+2.617991144788142E-6j        2.696387615181182E-4+1.9834106137903484E-6j       2.7017175384671773E-4+1.1477327854012834E-6j      2.7017334852992076E-4+5.948435544798125E-7j       2.7002713463889595E-4+3.744028375564364E-7j       2.699410368171983E-4+3.591871389140023E-7j        2.69959065514142E-4+3.981575599872982E-7j         2.7002907528902005E-4+4.115671304569022E-7j       2.7009996020079647E-4+3.9864475086886427E-7j      2.7016033976754366E-4+3.8016779157598E-7j         2.702163233336847E-4+3.6292944534967344E-7j       2.702700519574942E-4+3.448293758227722E-7j        2.7031977721598096E-4+3.2500588731262147E-7j      2.703638527573437E-4+3.044748687586883E-7j        2.7040125824673376E-4+2.849795609056726E-7j       2.7043164104356975E-4+2.687786246830991E-7j       2.7045550117777936E-4+2.583530467838133E-7j       2.70474167680066E-4+2.5600276247639545E-7j        2.7048953344630894E-4+2.6349149271548285E-7j      2.705035678461825E-4+2.819111584343507E-7j        2.7051779491031526E-4+3.118777489637877E-7j       2.705329514520114E-4+3.5402509859928985E-7j       2.705489433164291E-4+4.0962346248297093E-7j       2.705650890189862E-4+4.811205604225984E-7j        2.7058050139716427E-4+5.724847733036224E-7j       2.7059443525682996E-4+6.893510285711015E-7j       2.706064565625795E-4+8.390939463862096E-7j
