% Model:              modelJ.mph
% Versjon:            COMSOL 6.0.0.405
% Date:               Aug 18 2023, 17:05
% Djmensjon:          1
% Nodes:              1
% Expressjons:        60
% Descrjptjon:        
% r                       (-muS*gNaS*u23z-DS*u3Tz)*e*2*pj*r/(pj*R^2*ka*E0) @ w=0.01 (-muS*gNaS*u23z-DS*u3Tz)*e*2*pj*r/(pj*R^2*ka*E0) @ w=0.012638 (-muS*gNaS*u23z-DS*u3Tz)*e*2*pj*r/(pj*R^2*ka*E0) @ w=0.015973 (-muS*gNaS*u23z-DS*u3Tz)*e*2*pj*r/(pj*R^2*ka*E0) @ w=0.020188 (-muS*gNaS*u23z-DS*u3Tz)*e*2*pj*r/(pj*R^2*ka*E0) @ w=0.025514 (-muS*gNaS*u23z-DS*u3Tz)*e*2*pj*r/(pj*R^2*ka*E0) @ w=0.032246 (-muS*gNaS*u23z-DS*u3Tz)*e*2*pj*r/(pj*R^2*ka*E0) @ w=0.040754 (-muS*gNaS*u23z-DS*u3Tz)*e*2*pj*r/(pj*R^2*ka*E0) @ w=0.051507 (-muS*gNaS*u23z-DS*u3Tz)*e*2*pj*r/(pj*R^2*ka*E0) @ w=0.065097 (-muS*gNaS*u23z-DS*u3Tz)*e*2*pj*r/(pj*R^2*ka*E0) @ w=0.082272 (-muS*gNaS*u23z-DS*u3Tz)*e*2*pj*r/(pj*R^2*ka*E0) @ w=0.10398 (-muS*gNaS*u23z-DS*u3Tz)*e*2*pj*r/(pj*R^2*ka*E0) @ w=0.13141 (-muS*gNaS*u23z-DS*u3Tz)*e*2*pj*r/(pj*R^2*ka*E0) @ w=0.16609 (-muS*gNaS*u23z-DS*u3Tz)*e*2*pj*r/(pj*R^2*ka*E0) @ w=0.20991 (-muS*gNaS*u23z-DS*u3Tz)*e*2*pj*r/(pj*R^2*ka*E0) @ w=0.26529 (-muS*gNaS*u23z-DS*u3Tz)*e*2*pj*r/(pj*R^2*ka*E0) @ w=0.33529 (-muS*gNaS*u23z-DS*u3Tz)*e*2*pj*r/(pj*R^2*ka*E0) @ w=0.42376 (-muS*gNaS*u23z-DS*u3Tz)*e*2*pj*r/(pj*R^2*ka*E0) @ w=0.53557 (-muS*gNaS*u23z-DS*u3Tz)*e*2*pj*r/(pj*R^2*ka*E0) @ w=0.67688 (-muS*gNaS*u23z-DS*u3Tz)*e*2*pj*r/(pj*R^2*ka*E0) @ w=0.85547 (-muS*gNaS*u23z-DS*u3Tz)*e*2*pj*r/(pj*R^2*ka*E0) @ w=1.0812 (-muS*gNaS*u23z-DS*u3Tz)*e*2*pj*r/(pj*R^2*ka*E0) @ w=1.3664 (-muS*gNaS*u23z-DS*u3Tz)*e*2*pj*r/(pj*R^2*ka*E0) @ w=1.727 (-muS*gNaS*u23z-DS*u3Tz)*e*2*pj*r/(pj*R^2*ka*E0) @ w=2.1826 (-muS*gNaS*u23z-DS*u3Tz)*e*2*pj*r/(pj*R^2*ka*E0) @ w=2.7585 (-muS*gNaS*u23z-DS*u3Tz)*e*2*pj*r/(pj*R^2*ka*E0) @ w=3.4864 (-muS*gNaS*u23z-DS*u3Tz)*e*2*pj*r/(pj*R^2*ka*E0) @ w=4.4062 (-muS*gNaS*u23z-DS*u3Tz)*e*2*pj*r/(pj*R^2*ka*E0) @ w=5.5688 (-muS*gNaS*u23z-DS*u3Tz)*e*2*pj*r/(pj*R^2*ka*E0) @ w=7.0381 (-muS*gNaS*u23z-DS*u3Tz)*e*2*pj*r/(pj*R^2*ka*E0) @ w=8.8951 (-muS*gNaS*u23z-DS*u3Tz)*e*2*pj*r/(pj*R^2*ka*E0) @ w=11.242 (-muS*gNaS*u23z-DS*u3Tz)*e*2*pj*r/(pj*R^2*ka*E0) @ w=14.208 (-muS*gNaS*u23z-DS*u3Tz)*e*2*pj*r/(pj*R^2*ka*E0) @ w=17.957 (-muS*gNaS*u23z-DS*u3Tz)*e*2*pj*r/(pj*R^2*ka*E0) @ w=22.695 (-muS*gNaS*u23z-DS*u3Tz)*e*2*pj*r/(pj*R^2*ka*E0) @ w=28.683 (-muS*gNaS*u23z-DS*u3Tz)*e*2*pj*r/(pj*R^2*ka*E0) @ w=36.251 (-muS*gNaS*u23z-DS*u3Tz)*e*2*pj*r/(pj*R^2*ka*E0) @ w=45.816 (-muS*gNaS*u23z-DS*u3Tz)*e*2*pj*r/(pj*R^2*ka*E0) @ w=57.904 (-muS*gNaS*u23z-DS*u3Tz)*e*2*pj*r/(pj*R^2*ka*E0) @ w=73.182 (-muS*gNaS*u23z-DS*u3Tz)*e*2*pj*r/(pj*R^2*ka*E0) @ w=92.491 (-muS*gNaS*u23z-DS*u3Tz)*e*2*pj*r/(pj*R^2*ka*E0) @ w=116.9 (-muS*gNaS*u23z-DS*u3Tz)*e*2*pj*r/(pj*R^2*ka*E0) @ w=147.74 (-muS*gNaS*u23z-DS*u3Tz)*e*2*pj*r/(pj*R^2*ka*E0) @ w=186.72 (-muS*gNaS*u23z-DS*u3Tz)*e*2*pj*r/(pj*R^2*ka*E0) @ w=235.98 (-muS*gNaS*u23z-DS*u3Tz)*e*2*pj*r/(pj*R^2*ka*E0) @ w=298.25 (-muS*gNaS*u23z-DS*u3Tz)*e*2*pj*r/(pj*R^2*ka*E0) @ w=376.94 (-muS*gNaS*u23z-DS*u3Tz)*e*2*pj*r/(pj*R^2*ka*E0) @ w=476.39 (-muS*gNaS*u23z-DS*u3Tz)*e*2*pj*r/(pj*R^2*ka*E0) @ w=602.09 (-muS*gNaS*u23z-DS*u3Tz)*e*2*pj*r/(pj*R^2*ka*E0) @ w=760.95 (-muS*gNaS*u23z-DS*u3Tz)*e*2*pj*r/(pj*R^2*ka*E0) @ w=961.72 (-muS*gNaS*u23z-DS*u3Tz)*e*2*pj*r/(pj*R^2*ka*E0) @ w=1215.5 (-muS*gNaS*u23z-DS*u3Tz)*e*2*pj*r/(pj*R^2*ka*E0) @ w=1536.2 (-muS*gNaS*u23z-DS*u3Tz)*e*2*pj*r/(pj*R^2*ka*E0) @ w=1941.5 (-muS*gNaS*u23z-DS*u3Tz)*e*2*pj*r/(pj*R^2*ka*E0) @ w=2453.8 (-muS*gNaS*u23z-DS*u3Tz)*e*2*pj*r/(pj*R^2*ka*E0) @ w=3101.2 (-muS*gNaS*u23z-DS*u3Tz)*e*2*pj*r/(pj*R^2*ka*E0) @ w=3919.4 (-muS*gNaS*u23z-DS*u3Tz)*e*2*pj*r/(pj*R^2*ka*E0) @ w=4953.5 (-muS*gNaS*u23z-DS*u3Tz)*e*2*pj*r/(pj*R^2*ka*E0) @ w=6260.5 (-muS*gNaS*u23z-DS*u3Tz)*e*2*pj*r/(pj*R^2*ka*E0) @ w=7912.3 (-muS*gNaS*u23z-DS*u3Tz)*e*2*pj*r/(pj*R^2*ka*E0) @ w=10000
0                         2.7519368981842435E-4-8.865184258096564E-6j       2.7499625454517336E-4-1.1195234585063167E-5j      2.746815207028755E-4-1.4130919001219452E-5j       2.74180398499141E-4-1.7822795921429658E-5j        2.7338402187441563E-4-2.2451914040917494E-5j      2.721222457730378E-4-2.8228833855252782E-5j       2.7013262575937506E-4-3.538402129864734E-5j       2.670188469770077E-4-4.414051907315662E-5j        2.6220275278386905E-4-5.46537803249313E-5j        2.548877437703435E-4-6.689794360549671E-5j        2.4407863119793038E-4-8.048189801144346E-5j       2.2874032063600902E-4-9.441440652347566E-5j       2.0818668639244442E-4-1.0693283764419999E-4j      1.8267875904282255E-4-1.1563939834617565E-4j      1.5392150325092103E-4-1.1817350121847881E-4j      1.24924276385529E-4-1.1325326866814271E-4j        9.903615905956095E-5-1.0137658405484214E-4j       7.87672961608199E-5-8.458661384335996E-5j         6.522306851799702E-5-6.557113069056209E-5j        5.827461821402038E-5-4.686381364050987E-5j        5.696523471793922E-5-3.0512652939738368E-5j       5.975300286995115E-5-1.7998127377870875E-5j       6.46423851258607E-5-1.0070270094880293E-5j        6.949890976327733E-5-6.491090827122142E-6j        7.264197865454499E-5-5.998498446388032E-6j        7.341735914023206E-5-6.744770814420581E-6j        7.233428128192814E-5-7.073051786159275E-6j        7.061334719407656E-5-6.192256140158362E-6j        6.939859533533081E-5-4.319860694107254E-6j        6.91698683327092E-5-2.2175330198799118E-6j        6.973804854813136E-5-5.379096761158132E-7j        7.066233359506061E-5+4.8717895226639E-7j          7.159938840371052E-5+9.277186750799266E-7j        7.23587505943607E-5+9.43859433356987E-7j          7.284504363115994E-5+7.147284374919216E-7j        7.305389358289748E-5+4.2397558400754175E-7j       7.307034740020976E-5+2.067368851354905E-7j        7.301370724345748E-5+1.0638778439494854E-7j       7.297014020624402E-5+8.93776215130399E-8j         7.296425636147452E-5+9.920033431619434E-8j        7.297956069970423E-5+1.0254973485057212E-7j       7.299626762545683E-5+9.653795472040785E-8j        7.300872633731594E-5+8.87955294667772E-8j         7.301905579775226E-5+8.269393218928673E-8j        7.302863864610703E-5+7.785536906900287E-8j        7.303745361848102E-5+7.396111309617269E-8j        7.304550576834316E-5+7.115942301850969E-8j        7.30529427146627E-5+6.959892243572147E-8j         7.305992794868764E-5+6.94178198308277E-8j         7.306664883840677E-5+7.077173329739633E-8j        7.307333660301884E-5+7.381718635341796E-8j        7.308025041736115E-5+7.867685124176982E-8j        7.308762659743328E-5+8.541718643483008E-8j        7.309560119439364E-5+9.407428419826308E-8j        7.310414871042381E-5+1.0473622074300416E-7j       7.311307383700391E-5+1.1765718644640183E-7j       7.312204796825927E-5+1.33368369362545E-7j         7.313068202794307E-5+1.5276583398111515E-7j       7.31386078155927E-5+1.7717048611575841E-7j        7.314555245536156E-5+2.083551134311595E-7j
